
     Program PWSCF v.7.4 starts on 25Oct2025 at 21:53:42 

     This program is part of the open-source Quantum ESPRESSO suite
     for quantum simulation of materials; please cite
         "P. Giannozzi et al., J. Phys.:Condens. Matter 21 395502 (2009);
         "P. Giannozzi et al., J. Phys.:Condens. Matter 29 465901 (2017);
         "P. Giannozzi et al., J. Chem. Phys. 152 154105 (2020);
          URL http://www.quantum-espresso.org", 
     in publications or presentations arising from this work. More details at
     http://www.quantum-espresso.org/quote

     Parallel version (MPI & OpenMP), running on       8 processor cores
     Number of MPI processes:                 8
     Threads/MPI process:                     1

     MPI processes distributed on     1 nodes
     289404 MiB available memory on the printing compute node when the environment starts

     Reading input from TiFe_full.in

     Current dimensions of program PWSCF are:
     Max number of different atomic species (ntypx) = 10
     Max number of k-points (npk) =  40000
     Max angular momentum in pseudopotentials (lmaxx) =  4
     file Fe.pbe-spn-kjpaw_psl.0.2.1.UPF: wavefunction(s)  3D renormalized

     IMPORTANT: XC functional enforced from input :
     Exchange-correlation= PBE
                           (   1   4   3   4   0   0   0)
     Any further DFT definition will be discarded
     Please, verify this is what you really want

     Message from routine setup:
     using ibrav=0 with symmetry is DISCOURAGED, use correct ibrav instead

     R & G space division:  proc/nbgrp/npool/nimage =       8
     Subspace diagonalization in iterative solution of the eigenvalue problem:
     a serial algorithm will be used


     Parallelization info
     --------------------
     sticks:   dense  smooth     PW     G-vecs:    dense   smooth      PW
     Min         532     151     43                26154     3989     617
     Max         533     152     44                26155     3993     620
     Sum        4257    1209    349               209233    31919    4945

     Using Slab Decomposition



     bravais-lattice index     =            0
     lattice parameter (alat)  =       5.5533  a.u.
     unit-cell volume          =     171.2590 (a.u.)^3
     number of atoms/cell      =            2
     number of atomic types    =            2
     number of electrons       =        28.00
     number of Kohn-Sham states=           18
     kinetic-energy cutoff     =     124.0000  Ry
     charge density cutoff     =    1736.0000  Ry
     scf convergence threshold =      1.0E-08
     mixing beta               =       0.7000
     number of iterations used =            8  plain     mixing
     energy convergence thresh.=      1.0E-04
     force convergence thresh. =      1.0E-03
     press convergence thresh. =      1.0E-01
     Exchange-correlation= PBE
                           (   1   4   3   4   0   0   0)
     nstep                     =           50


     celldm(1)=   5.553300  celldm(2)=   0.000000  celldm(3)=   0.000000
     celldm(4)=   0.000000  celldm(5)=   0.000000  celldm(6)=   0.000000

     crystal axes: (cart. coord. in units of alat)
               a(1) = (   1.000000   0.000000   0.000000 )  
               a(2) = (   0.000000   1.000000   0.000000 )  
               a(3) = (   0.000000   0.000000   1.000000 )  

     reciprocal axes: (cart. coord. in units 2 pi/alat)
               b(1) = (  1.000000  0.000000  0.000000 )  
               b(2) = (  0.000000  1.000000  0.000000 )  
               b(3) = (  0.000000  0.000000  1.000000 )  


     PseudoPot. # 1 for Fe read from file:
     ../../pseudos/Fe.pbe-spn-kjpaw_psl.0.2.1.UPF
     MD5 check sum: e86618425769142926afa95317d90200
     Pseudo is Projector augmented-wave + core cor, Zval = 16.0
     Generated using "atomic" code by A. Dal Corso  v.5.0.99 svn rev. 10869
     Shape of augmentation charge: PSQ
     Using radial grid of 1191 points,  6 beta functions with: 
                l(1) =   0
                l(2) =   0
                l(3) =   1
                l(4) =   1
                l(5) =   2
                l(6) =   2
     Q(r) pseudized with 0 coefficients 


     PseudoPot. # 2 for Ti read from file:
     ../../pseudos/ti_pbe_v1.4.uspp.F.UPF
     MD5 check sum: 88a00a6731bd790ddea75d31a80cb452
     Pseudo is Ultrasoft + core correction, Zval = 12.0
     Generated by new atomic code, or converted to UPF format
     Using radial grid of  851 points,  6 beta functions with: 
                l(1) =   0
                l(2) =   0
                l(3) =   1
                l(4) =   1
                l(5) =   2
                l(6) =   2
     Q(r) pseudized with  6 coefficients,  rinner =    1.000   1.000   1.000
                                                       1.000   1.000

     atomic species   valence    mass     pseudopotential
     Fe               16.00    55.84500     Fe( 1.00)
     Ti               12.00    47.86700     Ti( 1.00)

     48 Sym. Ops., with inversion, found



   Cartesian axes

     site n.     atom                  positions (alat units)
         1        Fe     tau(   1) = (   0.5000000   0.5000000   0.5000000  )
         2        Ti     tau(   2) = (   0.0000000   0.0000000   0.0000000  )

     number of k points=    56  Marzari-Vanderbilt smearing, width (Ry)=  0.0050
                       cart. coord. in units 2pi/alat
        k(    1) = (   0.0000000   0.0000000   0.0000000), wk =   0.0015026
        k(    2) = (   0.0000000   0.0000000   0.0909091), wk =   0.0090158
        k(    3) = (   0.0000000   0.0000000   0.1818182), wk =   0.0090158
        k(    4) = (   0.0000000   0.0000000   0.2727273), wk =   0.0090158
        k(    5) = (   0.0000000   0.0000000   0.3636364), wk =   0.0090158
        k(    6) = (   0.0000000   0.0000000   0.4545455), wk =   0.0090158
        k(    7) = (   0.0000000   0.0909091   0.0909091), wk =   0.0180316
        k(    8) = (   0.0000000   0.0909091   0.1818182), wk =   0.0360631
        k(    9) = (   0.0000000   0.0909091   0.2727273), wk =   0.0360631
        k(   10) = (   0.0000000   0.0909091   0.3636364), wk =   0.0360631
        k(   11) = (   0.0000000   0.0909091   0.4545455), wk =   0.0360631
        k(   12) = (   0.0000000   0.1818182   0.1818182), wk =   0.0180316
        k(   13) = (   0.0000000   0.1818182   0.2727273), wk =   0.0360631
        k(   14) = (   0.0000000   0.1818182   0.3636364), wk =   0.0360631
        k(   15) = (   0.0000000   0.1818182   0.4545455), wk =   0.0360631
        k(   16) = (   0.0000000   0.2727273   0.2727273), wk =   0.0180316
        k(   17) = (   0.0000000   0.2727273   0.3636364), wk =   0.0360631
        k(   18) = (   0.0000000   0.2727273   0.4545455), wk =   0.0360631
        k(   19) = (   0.0000000   0.3636364   0.3636364), wk =   0.0180316
        k(   20) = (   0.0000000   0.3636364   0.4545455), wk =   0.0360631
        k(   21) = (   0.0000000   0.4545455   0.4545455), wk =   0.0180316
        k(   22) = (   0.0909091   0.0909091   0.0909091), wk =   0.0120210
        k(   23) = (   0.0909091   0.0909091   0.1818182), wk =   0.0360631
        k(   24) = (   0.0909091   0.0909091   0.2727273), wk =   0.0360631
        k(   25) = (   0.0909091   0.0909091   0.3636364), wk =   0.0360631
        k(   26) = (   0.0909091   0.0909091   0.4545455), wk =   0.0360631
        k(   27) = (   0.0909091   0.1818182   0.1818182), wk =   0.0360631
        k(   28) = (   0.0909091   0.1818182   0.2727273), wk =   0.0721262
        k(   29) = (   0.0909091   0.1818182   0.3636364), wk =   0.0721262
        k(   30) = (   0.0909091   0.1818182   0.4545455), wk =   0.0721262
        k(   31) = (   0.0909091   0.2727273   0.2727273), wk =   0.0360631
        k(   32) = (   0.0909091   0.2727273   0.3636364), wk =   0.0721262
        k(   33) = (   0.0909091   0.2727273   0.4545455), wk =   0.0721262
        k(   34) = (   0.0909091   0.3636364   0.3636364), wk =   0.0360631
        k(   35) = (   0.0909091   0.3636364   0.4545455), wk =   0.0721262
        k(   36) = (   0.0909091   0.4545455   0.4545455), wk =   0.0360631
        k(   37) = (   0.1818182   0.1818182   0.1818182), wk =   0.0120210
        k(   38) = (   0.1818182   0.1818182   0.2727273), wk =   0.0360631
        k(   39) = (   0.1818182   0.1818182   0.3636364), wk =   0.0360631
        k(   40) = (   0.1818182   0.1818182   0.4545455), wk =   0.0360631
        k(   41) = (   0.1818182   0.2727273   0.2727273), wk =   0.0360631
        k(   42) = (   0.1818182   0.2727273   0.3636364), wk =   0.0721262
        k(   43) = (   0.1818182   0.2727273   0.4545455), wk =   0.0721262
        k(   44) = (   0.1818182   0.3636364   0.3636364), wk =   0.0360631
        k(   45) = (   0.1818182   0.3636364   0.4545455), wk =   0.0721262
        k(   46) = (   0.1818182   0.4545455   0.4545455), wk =   0.0360631
        k(   47) = (   0.2727273   0.2727273   0.2727273), wk =   0.0120210
        k(   48) = (   0.2727273   0.2727273   0.3636364), wk =   0.0360631
        k(   49) = (   0.2727273   0.2727273   0.4545455), wk =   0.0360631
        k(   50) = (   0.2727273   0.3636364   0.3636364), wk =   0.0360631
        k(   51) = (   0.2727273   0.3636364   0.4545455), wk =   0.0721262
        k(   52) = (   0.2727273   0.4545455   0.4545455), wk =   0.0360631
        k(   53) = (   0.3636364   0.3636364   0.3636364), wk =   0.0120210
        k(   54) = (   0.3636364   0.3636364   0.4545455), wk =   0.0360631
        k(   55) = (   0.3636364   0.4545455   0.4545455), wk =   0.0360631
        k(   56) = (   0.4545455   0.4545455   0.4545455), wk =   0.0120210

     Dense  grid:   209233 G-vectors     FFT dimensions: (  75,  75,  75)

     Smooth grid:    31919 G-vectors     FFT dimensions: (  40,  40,  40)

     Estimated max dynamical RAM per process >     117.03 MB

     Estimated total dynamical RAM >     936.25 MB

     Check: negative core charge=   -0.000002

     Initial potential from superposition of free atoms

     starting charge      26.9995, renormalised to      28.0000

     negative rho (up, down):  1.347E-03 0.000E+00
     Starting wfcs are   23 randomized atomic wfcs
     Checking if some PAW data can be deallocated... 

     total cpu time spent up to now is        1.4 secs

     per-process dynamical memory:   218.8 Mb

     Self-consistent Calculation

     iteration #  1     ecut=   124.00 Ry     beta= 0.70
     Davidson diagonalization with overlap
     ethr =  1.00E-02,  avg # of iterations =  2.1

     negative rho (up, down):  7.937E-05 0.000E+00

     total cpu time spent up to now is        2.4 secs

     total energy              =    -434.89047275 Ry
     estimated scf accuracy    <      17.46535633 Ry

     iteration #  2     ecut=   124.00 Ry     beta= 0.70
     Davidson diagonalization with overlap
     ethr =  1.00E-02,  avg # of iterations =  6.0

     negative rho (up, down):  2.353E-05 0.000E+00

     total cpu time spent up to now is        3.8 secs

     total energy              =    -448.51249463 Ry
     estimated scf accuracy    <      66.10195194 Ry

     iteration #  3     ecut=   124.00 Ry     beta= 0.70
     Davidson diagonalization with overlap
     ethr =  1.00E-02,  avg # of iterations =  3.1

     negative rho (up, down):  2.377E-04 0.000E+00

     total cpu time spent up to now is        4.8 secs

     total energy              =    -448.59203340 Ry
     estimated scf accuracy    <      16.77106202 Ry

     iteration #  4     ecut=   124.00 Ry     beta= 0.70
     Davidson diagonalization with overlap
     ethr =  1.00E-02,  avg # of iterations =  2.2

     negative rho (up, down):  2.766E-04 0.000E+00

     total cpu time spent up to now is        5.7 secs

     total energy              =    -449.11252552 Ry
     estimated scf accuracy    <       4.68111793 Ry

     iteration #  5     ecut=   124.00 Ry     beta= 0.70
     Davidson diagonalization with overlap
     ethr =  1.00E-02,  avg # of iterations =  1.0

     negative rho (up, down):  3.285E-04 0.000E+00

     total cpu time spent up to now is        6.5 secs

     total energy              =    -449.11683000 Ry
     estimated scf accuracy    <       4.27451567 Ry

     iteration #  6     ecut=   124.00 Ry     beta= 0.70
     Davidson diagonalization with overlap
     ethr =  1.00E-02,  avg # of iterations =  1.0

     negative rho (up, down):  1.118E-03 0.000E+00

     total cpu time spent up to now is        7.3 secs

     total energy              =    -447.89068457 Ry
     estimated scf accuracy    <       4.50163493 Ry

     iteration #  7     ecut=   124.00 Ry     beta= 0.70
     Davidson diagonalization with overlap
     ethr =  1.00E-02,  avg # of iterations =  3.4

     negative rho (up, down):  1.015E-03 0.000E+00

     total cpu time spent up to now is        8.2 secs

     total energy              =    -448.58840447 Ry
     estimated scf accuracy    <       3.89651472 Ry

     iteration #  8     ecut=   124.00 Ry     beta= 0.70
     Davidson diagonalization with overlap
     ethr =  1.00E-02,  avg # of iterations =  1.0

     negative rho (up, down):  7.976E-04 0.000E+00

     total cpu time spent up to now is        9.0 secs

     total energy              =    -448.43997417 Ry
     estimated scf accuracy    <       1.27715295 Ry

     iteration #  9     ecut=   124.00 Ry     beta= 0.70
     Davidson diagonalization with overlap
     ethr =  4.56E-03,  avg # of iterations =  1.9

     negative rho (up, down):  7.977E-04 0.000E+00

     total cpu time spent up to now is        9.8 secs

     total energy              =    -448.60539805 Ry
     estimated scf accuracy    <       0.26863249 Ry

     iteration # 10     ecut=   124.00 Ry     beta= 0.70
     Davidson diagonalization with overlap
     ethr =  9.59E-04,  avg # of iterations =  1.3

     negative rho (up, down):  8.075E-04 0.000E+00

     total cpu time spent up to now is       10.6 secs

     total energy              =    -448.61289738 Ry
     estimated scf accuracy    <       0.28159432 Ry

     iteration # 11     ecut=   124.00 Ry     beta= 0.70
     Davidson diagonalization with overlap
     ethr =  9.59E-04,  avg # of iterations =  1.0

     negative rho (up, down):  7.617E-04 0.000E+00

     total cpu time spent up to now is       11.4 secs

     total energy              =    -448.67957078 Ry
     estimated scf accuracy    <       0.34549008 Ry

     iteration # 12     ecut=   124.00 Ry     beta= 0.70
     Davidson diagonalization with overlap
     ethr =  9.59E-04,  avg # of iterations =  1.8

     negative rho (up, down):  7.932E-04 0.000E+00

     total cpu time spent up to now is       12.2 secs

     total energy              =    -448.62277485 Ry
     estimated scf accuracy    <       1.28404054 Ry

     iteration # 13     ecut=   124.00 Ry     beta= 0.70
     Davidson diagonalization with overlap
     ethr =  9.59E-04,  avg # of iterations =  1.2

     negative rho (up, down):  9.274E-04 0.000E+00

     total cpu time spent up to now is       13.0 secs

     total energy              =    -448.63537755 Ry
     estimated scf accuracy    <       0.58154385 Ry

     iteration # 14     ecut=   124.00 Ry     beta= 0.70
     Davidson diagonalization with overlap
     ethr =  9.59E-04,  avg # of iterations =  1.0

     negative rho (up, down):  1.025E-03 0.000E+00

     total cpu time spent up to now is       13.8 secs

     total energy              =    -448.61055070 Ry
     estimated scf accuracy    <       0.50368914 Ry

     iteration # 15     ecut=   124.00 Ry     beta= 0.70
     Davidson diagonalization with overlap
     ethr =  9.59E-04,  avg # of iterations =  1.0

     negative rho (up, down):  1.032E-03 0.000E+00

     total cpu time spent up to now is       14.6 secs

     total energy              =    -448.61143942 Ry
     estimated scf accuracy    <       0.31963620 Ry

     iteration # 16     ecut=   124.00 Ry     beta= 0.70
     Davidson diagonalization with overlap
     ethr =  9.59E-04,  avg # of iterations =  1.0

     negative rho (up, down):  1.077E-03 0.000E+00

     total cpu time spent up to now is       15.4 secs

     total energy              =    -448.59313187 Ry
     estimated scf accuracy    <       0.28283030 Ry

     iteration # 17     ecut=   124.00 Ry     beta= 0.70
     Davidson diagonalization with overlap
     ethr =  9.59E-04,  avg # of iterations =  1.0

     negative rho (up, down):  1.074E-03 0.000E+00

     total cpu time spent up to now is       16.2 secs

     total energy              =    -448.60188466 Ry
     estimated scf accuracy    <       0.07727334 Ry

     iteration # 18     ecut=   124.00 Ry     beta= 0.70
     Davidson diagonalization with overlap
     ethr =  2.76E-04,  avg # of iterations =  1.6

     negative rho (up, down):  9.925E-04 0.000E+00

     total cpu time spent up to now is       17.0 secs

     total energy              =    -448.58361170 Ry
     estimated scf accuracy    <       0.14906513 Ry

     iteration # 19     ecut=   124.00 Ry     beta= 0.70
     Davidson diagonalization with overlap
     ethr =  2.76E-04,  avg # of iterations =  1.1

     negative rho (up, down):  9.436E-04 0.000E+00

     total cpu time spent up to now is       17.8 secs

     total energy              =    -448.59412595 Ry
     estimated scf accuracy    <       0.04848594 Ry

     iteration # 20     ecut=   124.00 Ry     beta= 0.70
     Davidson diagonalization with overlap
     ethr =  1.73E-04,  avg # of iterations =  1.1

     negative rho (up, down):  1.023E-03 0.000E+00

     total cpu time spent up to now is       18.6 secs

     total energy              =    -448.57755582 Ry
     estimated scf accuracy    <       0.17402911 Ry

     iteration # 21     ecut=   124.00 Ry     beta= 0.70
     Davidson diagonalization with overlap
     ethr =  1.73E-04,  avg # of iterations =  2.1

     negative rho (up, down):  1.012E-03 0.000E+00

     total cpu time spent up to now is       19.4 secs

     total energy              =    -448.58650556 Ry
     estimated scf accuracy    <       0.00384582 Ry

     iteration # 22     ecut=   124.00 Ry     beta= 0.70
     Davidson diagonalization with overlap
     ethr =  1.37E-05,  avg # of iterations =  4.6

     negative rho (up, down):  1.004E-03 0.000E+00

     total cpu time spent up to now is       20.4 secs

     total energy              =    -448.58691254 Ry
     estimated scf accuracy    <       0.00198474 Ry

     iteration # 23     ecut=   124.00 Ry     beta= 0.70
     Davidson diagonalization with overlap
     ethr =  7.09E-06,  avg # of iterations =  1.5

     negative rho (up, down):  1.006E-03 0.000E+00

     total cpu time spent up to now is       21.2 secs

     total energy              =    -448.58700273 Ry
     estimated scf accuracy    <       0.00176933 Ry

     iteration # 24     ecut=   124.00 Ry     beta= 0.70
     Davidson diagonalization with overlap
     ethr =  6.32E-06,  avg # of iterations =  1.0

     negative rho (up, down):  9.532E-04 0.000E+00

     total cpu time spent up to now is       22.0 secs

     total energy              =    -448.58622429 Ry
     estimated scf accuracy    <       0.00189336 Ry

     iteration # 25     ecut=   124.00 Ry     beta= 0.70
     Davidson diagonalization with overlap
     ethr =  6.32E-06,  avg # of iterations =  2.5

     negative rho (up, down):  9.519E-04 0.000E+00

     total cpu time spent up to now is       22.9 secs

     total energy              =    -448.58664002 Ry
     estimated scf accuracy    <       0.00120780 Ry

     iteration # 26     ecut=   124.00 Ry     beta= 0.70
     Davidson diagonalization with overlap
     ethr =  4.31E-06,  avg # of iterations =  1.0

     negative rho (up, down):  9.350E-04 0.000E+00

     total cpu time spent up to now is       23.7 secs

     total energy              =    -448.58685541 Ry
     estimated scf accuracy    <       0.00115496 Ry

     iteration # 27     ecut=   124.00 Ry     beta= 0.70
     Davidson diagonalization with overlap
     ethr =  4.12E-06,  avg # of iterations =  2.0

     negative rho (up, down):  9.665E-04 0.000E+00

     total cpu time spent up to now is       24.5 secs

     total energy              =    -448.58628944 Ry
     estimated scf accuracy    <       0.00358732 Ry

     iteration # 28     ecut=   124.00 Ry     beta= 0.70
     Davidson diagonalization with overlap
     ethr =  4.12E-06,  avg # of iterations =  2.0

     negative rho (up, down):  9.722E-04 0.000E+00

     total cpu time spent up to now is       25.4 secs

     total energy              =    -448.58652078 Ry
     estimated scf accuracy    <       0.00004727 Ry

     iteration # 29     ecut=   124.00 Ry     beta= 0.70
     Davidson diagonalization with overlap
     ethr =  1.69E-07,  avg # of iterations =  4.7

     negative rho (up, down):  9.640E-04 0.000E+00

     total cpu time spent up to now is       26.4 secs

     total energy              =    -448.58653251 Ry
     estimated scf accuracy    <       0.00024121 Ry

     iteration # 30     ecut=   124.00 Ry     beta= 0.70
     Davidson diagonalization with overlap
     ethr =  1.69E-07,  avg # of iterations =  3.8

     negative rho (up, down):  9.643E-04 0.000E+00

     total cpu time spent up to now is       27.4 secs

     total energy              =    -448.58655217 Ry
     estimated scf accuracy    <       0.00000018 Ry

     iteration # 31     ecut=   124.00 Ry     beta= 0.70
     Davidson diagonalization with overlap
     ethr =  6.52E-10,  avg # of iterations =  5.9

     negative rho (up, down):  9.640E-04 0.000E+00

     total cpu time spent up to now is       28.7 secs

     total energy              =    -448.58655245 Ry
     estimated scf accuracy    <       0.00000124 Ry

     iteration # 32     ecut=   124.00 Ry     beta= 0.70
     Davidson diagonalization with overlap
     ethr =  6.52E-10,  avg # of iterations =  4.0

     negative rho (up, down):  9.638E-04 0.000E+00

     total cpu time spent up to now is       29.6 secs

     total energy              =    -448.58655251 Ry
     estimated scf accuracy    <       0.00000015 Ry

     iteration # 33     ecut=   124.00 Ry     beta= 0.70
     Davidson diagonalization with overlap
     ethr =  5.51E-10,  avg # of iterations =  2.0

     negative rho (up, down):  9.641E-04 0.000E+00

     total cpu time spent up to now is       30.4 secs

     total energy              =    -448.58655246 Ry
     estimated scf accuracy    <       0.00000035 Ry

     iteration # 34     ecut=   124.00 Ry     beta= 0.70
     Davidson diagonalization with overlap
     ethr =  5.51E-10,  avg # of iterations =  2.3

     negative rho (up, down):  9.642E-04 0.000E+00

     total cpu time spent up to now is       31.2 secs

     total energy              =    -448.58655249 Ry
     estimated scf accuracy    <       0.00000002 Ry

     iteration # 35     ecut=   124.00 Ry     beta= 0.70
     Davidson diagonalization with overlap
     ethr =  7.35E-11,  avg # of iterations =  3.8

     negative rho (up, down):  9.641E-04 0.000E+00

     total cpu time spent up to now is       32.2 secs

     total energy              =    -448.58655249 Ry
     estimated scf accuracy    <       0.00000003 Ry

     iteration # 36     ecut=   124.00 Ry     beta= 0.70
     Davidson diagonalization with overlap
     ethr =  7.35E-11,  avg # of iterations =  2.8

     negative rho (up, down):  9.642E-04 0.000E+00

     total cpu time spent up to now is       33.0 secs

     End of self-consistent calculation

          k = 0.0000 0.0000 0.0000 (  3911 PWs)   bands (ev):

   -69.2103 -39.1517 -35.2713 -35.2713 -35.2713 -15.2460 -15.2460 -15.2460
    10.1528  13.8639  13.8639  16.6568  16.6568  16.6568  18.9983  18.9983
    20.9366  20.9366

          k = 0.0000 0.0000 0.0909 (  3947 PWs)   bands (ev):

   -69.2100 -39.1496 -35.2739 -35.2710 -35.2710 -15.2752 -15.2442 -15.2442
    10.3257  13.9470  13.9536  16.6441  16.6441  16.6947  18.8927  19.0380
    20.6858  20.6858

          k = 0.0000 0.0000 0.1818 (  3964 PWs)   bands (ev):

   -69.2093 -39.1439 -35.2806 -35.2699 -35.2699 -15.3532 -15.2395 -15.2395
    10.8272  14.1866  14.1906  16.6148  16.6148  16.8008  18.5875  19.1279
    20.1022  20.1022

          k = 0.0000 0.0000 0.2727 (  3988 PWs)   bands (ev):

   -69.2083 -39.1364 -35.2894 -35.2686 -35.2686 -15.4540 -15.2334 -15.2334
    11.6057  14.4523  14.5738  16.5899  16.5899  16.9516  18.1202  19.1616
    19.4564  19.4564

          k = 0.0000 0.0000 0.3636 (  4008 PWs)   bands (ev):

   -69.2074 -39.1296 -35.2974 -35.2674 -35.2674 -15.5455 -15.2277 -15.2277
    12.5660  14.5652  15.0485  16.5850  16.5850  17.1052  17.5653  18.9275
    18.9275  18.9715

          k = 0.0000 0.0000 0.4545 (  3992 PWs)   bands (ev):

   -69.2069 -39.1255 -35.3021 -35.2666 -35.2666 -15.5993 -15.2243 -15.2243
    13.5347  14.3044  15.4744  16.5939  16.5939  17.0903  17.2053  18.6282
    18.6282  18.6588

          k = 0.0000 0.0909 0.0909 (  3966 PWs)   bands (ev):

   -69.2097 -39.1473 -35.2748 -35.2724 -35.2706 -15.2763 -15.2701 -15.2424
    10.4951  14.0265  14.0436  16.5617  16.6235  16.7909  18.8775  19.0087
    20.4104  20.4353

          k = 0.0000 0.0909 0.1818 (  3978 PWs)   bands (ev):

   -69.2090 -39.1413 -35.2811 -35.2724 -35.2696 -15.3507 -15.2674 -15.2375
    10.9856  14.2440  14.2906  16.4813  16.5732  16.9084  18.6426  19.0872
    19.8667  19.9001

          k = 0.0000 0.0909 0.2727 (  3995 PWs)   bands (ev):

   -69.2080 -39.1334 -35.2900 -35.2716 -35.2682 -15.4505 -15.2605 -15.2310
    11.7434  14.5128  14.6445  16.4377  16.5167  16.9935  18.2447  19.0577
    19.3653  19.4002

          k = 0.0000 0.0909 0.3636 (  3991 PWs)   bands (ev):

   -69.2071 -39.1261 -35.2982 -35.2709 -35.2670 -15.5410 -15.2540 -15.2251
    12.6707  14.6170  15.0808  16.4435  16.4656  16.9997  17.7899  18.6460
    19.0665  19.2133

          k = 0.0000 0.0909 0.4545 (  3999 PWs)   bands (ev):

   -69.2066 -39.1218 -35.3030 -35.2704 -35.2663 -15.5943 -15.2502 -15.2216
    13.5943  14.3519  15.4692  16.3968  16.4805  16.9451  17.4633  18.3527
    18.9324  19.0197

          k = 0.0000 0.1818 0.1818 (  3972 PWs)   bands (ev):

   -69.2083 -39.1343 -35.2840 -35.2772 -35.2686 -15.3518 -15.3342 -15.2320
    11.4401  14.3900  14.5687  16.3070  16.4778  16.9857  18.6949  19.0459
    19.3497  19.5759

          k = 0.0000 0.1818 0.2727 (  4003 PWs)   bands (ev):

   -69.2073 -39.1252 -35.2920 -35.2794 -35.2673 -15.4412 -15.3324 -15.2248
    12.1275  14.5565  14.9462  16.1858  16.3868  16.9101  18.5209  18.8014
    19.2048  19.3971

          k = 0.0000 0.1818 0.3636 (  3997 PWs)   bands (ev):

   -69.2064 -39.1168 -35.3004 -35.2802 -35.2661 -15.5290 -15.3241 -15.2182
    12.9354  14.5943  15.3322  16.1499  16.3572  16.7002  18.2182  18.4617
    19.3303  19.4171

          k = 0.0000 0.1818 0.4545 (  3990 PWs)   bands (ev):

   -69.2059 -39.1118 -35.3055 -35.2806 -35.2654 -15.5808 -15.3190 -15.2143
    13.6841  14.3630  15.6125  16.2009  16.3901  16.4819  18.0481  18.2166
    19.3519  19.5140

          k = 0.0000 0.2727 0.2727 (  4000 PWs)   bands (ev):

   -69.2063 -39.1144 -35.2962 -35.2880 -35.2661 -15.4376 -15.4171 -15.2167
    12.6688  14.5348  15.3963  15.9775  16.3399  16.6425  18.5789  18.7502
    19.1053  19.5704

          k = 0.0000 0.2727 0.3636 (  3993 PWs)   bands (ev):

   -69.2054 -39.1045 -35.3035 -35.2923 -35.2649 -15.5134 -15.4148 -15.2091
    13.2266  14.4166  15.8407  15.8678  16.3180  16.4951  18.3958  18.7292
    19.2749  19.8465

          k = 0.0000 0.2727 0.4545 (  3996 PWs)   bands (ev):

   -69.2049 -39.0986 -35.3088 -35.2939 -35.2643 -15.5632 -15.4082 -15.2047
    13.6460  14.2282  15.8808  16.0551  16.0845  16.8466  18.1510  18.6845
    19.4869  20.0942

          k = 0.0000 0.3636 0.3636 (  4002 PWs)   bands (ev):

   -69.2046 -39.0932 -35.3073 -35.3025 -35.2639 -15.5040 -15.4922 -15.2008
    13.4198  14.2078  15.6811  15.9708  16.4456  16.8939  18.5222  19.0881
    19.1103  20.2512

          k = 0.0000 0.3636 0.4545 (  3999 PWs)   bands (ev):

   -69.2041 -39.0865 -35.3119 -35.3062 -35.2632 -15.5469 -15.4893 -15.1958
    13.5039  14.0682  15.6294  15.7309  16.8140  17.5391  18.2827  19.1483
    19.3230  20.5545

          k = 0.0000 0.4545 0.4545 (  3998 PWs)   bands (ev):

   -69.2035 -39.0793 -35.3139 -35.3133 -35.2626 -15.5379 -15.5363 -15.1906
    13.3946  13.9723  15.5085  15.5425  17.5106  17.9878  18.6670  18.8520
    19.4119  20.8262

          k = 0.0909 0.0909 0.0909 (  3959 PWs)   bands (ev):

   -69.2095 -39.1450 -35.2744 -35.2744 -35.2711 -15.2768 -15.2683 -15.2683
    10.6615  14.1185  14.1185  16.5391  16.5391  16.8681  18.9295  18.9295
    19.9929  20.6652

          k = 0.0909 0.0909 0.1818 (  3966 PWs)   bands (ev):

   -69.2087 -39.1386 -35.2813 -35.2733 -35.2710 -15.3482 -15.2670 -15.2635
    11.1426  14.3361  14.3554  16.4287  16.4796  16.9503  18.7012  19.0493
    19.5188  20.0789

          k = 0.0909 0.0909 0.2727 (  3992 PWs)   bands (ev):

   -69.2077 -39.1303 -35.2905 -35.2720 -35.2707 -15.4470 -15.2590 -15.2572
    11.8826  14.6168  14.6736  16.3700  16.3987  16.9454  18.3564  19.0006
    19.3237  19.4428

          k = 0.0909 0.0909 0.3636 (  3994 PWs)   bands (ev):

   -69.2069 -39.1227 -35.2989 -35.2707 -35.2704 -15.5367 -15.2515 -15.2514
    12.7810  14.7008  15.0813  16.2989  16.4005  16.8595  17.9712  18.7163
    18.9369  19.4203

          k = 0.0909 0.0909 0.4545 (  4007 PWs)   bands (ev):

   -69.2063 -39.1181 -35.3038 -35.2702 -35.2699 -15.5895 -15.2480 -15.2470
    13.6656  14.4197  15.4383  16.1745  16.5156  16.7699  17.6949  18.4315
    18.6598  19.5237

          k = 0.0909 0.1818 0.1818 (  3984 PWs)   bands (ev):

   -69.2080 -39.1314 -35.2836 -35.2780 -35.2712 -15.3485 -15.3323 -15.2593
    11.5926  14.4938  14.6188  16.2700  16.3702  16.9131  18.7644  19.0172
    19.2359  19.7949

          k = 0.0909 0.1818 0.2727 (  3994 PWs)   bands (ev):

   -69.2070 -39.1221 -35.2920 -35.2795 -35.2705 -15.4379 -15.3300 -15.2517
    12.2705  14.6757  14.9647  16.1421  16.2715  16.7315  18.6110  18.9229
    19.2408  19.4560

          k = 0.0909 0.1818 0.3636 (  4001 PWs)   bands (ev):

   -69.2061 -39.1134 -35.3007 -35.2800 -35.2697 -15.5252 -15.3216 -15.2446
    13.0616  14.7215  15.2859  16.0686  16.2634  16.5479  18.3725  18.5771
    19.1013  19.7200

          k = 0.0909 0.1818 0.4545 (  3993 PWs)   bands (ev):

   -69.2056 -39.1083 -35.3060 -35.2802 -35.2692 -15.5767 -15.3165 -15.2403
    13.7875  14.4740  15.5175  16.0018  16.3647  16.4909  18.1992  18.2872
    18.8992  20.1084

          k = 0.0909 0.2727 0.2727 (  3989 PWs)   bands (ev):

   -69.2061 -39.1113 -35.2957 -35.2883 -35.2695 -15.4338 -15.4152 -15.2433
    12.8158  14.6587  15.4058  15.9390  16.2101  16.4306  18.6963  18.9064
    19.0874  19.7048

          k = 0.0909 0.2727 0.3636 (  3985 PWs)   bands (ev):

   -69.2052 -39.1013 -35.3033 -35.2922 -35.2686 -15.5102 -15.4124 -15.2356
    13.3704  14.5419  15.7742  15.8302  16.2030  16.3600  18.4781  18.8194
    19.1583  20.1173

          k = 0.0909 0.2727 0.4545 (  4006 PWs)   bands (ev):

   -69.2047 -39.0954 -35.3089 -35.2935 -35.2680 -15.5599 -15.4059 -15.2309
    13.7756  14.3545  15.7972  15.8477  16.1550  16.7541  18.1884  18.7888
    19.0873  20.6003

          k = 0.0909 0.3636 0.3636 (  3992 PWs)   bands (ev):

   -69.2043 -39.0901 -35.3068 -35.3024 -35.2675 -15.5010 -15.4902 -15.2272
    13.5656  14.3325  15.6507  15.8817  16.4032  16.7209  18.4860  18.9868
    19.1887  20.5637

          k = 0.0909 0.3636 0.4545 (  4002 PWs)   bands (ev):

   -69.2038 -39.0835 -35.3116 -35.3057 -35.2669 -15.5444 -15.4872 -15.2223
    13.6402  14.1966  15.5970  15.6797  16.7391  17.3611  18.2404  18.9495
    19.2816  20.7958

          k = 0.0909 0.4545 0.4545 (  3993 PWs)   bands (ev):

   -69.2033 -39.0764 -35.3134 -35.3128 -35.2662 -15.5359 -15.5344 -15.2171
    13.5314  14.1009  15.4861  15.5157  17.4523  17.8446  18.4160  18.5135
    19.4900  21.0194

          k = 0.1818 0.1818 0.1818 (  3989 PWs)   bands (ev):

   -69.2072 -39.1238 -35.2825 -35.2825 -35.2757 -15.3446 -15.3274 -15.3274
    12.0266  14.7610  14.7610  16.1713  16.1713  16.6504  18.9329  18.9329
    19.2930  20.0375

          k = 0.1818 0.1818 0.2727 (  3992 PWs)   bands (ev):

   -69.2063 -39.1137 -35.2922 -35.2810 -35.2777 -15.4290 -15.3257 -15.3208
    12.6697  14.9702  15.0333  16.0341  16.0388  16.3368  18.8050  19.0078
    19.4274  19.5989

          k = 0.1818 0.1818 0.3636 (  3994 PWs)   bands (ev):

   -69.2054 -39.1044 -35.3017 -35.2796 -35.2790 -15.5149 -15.3149 -15.3148
    13.3929  15.0074  15.2036  15.8991  16.0682  16.2650  18.6704  18.7433
    18.9524  20.1601

          k = 0.1818 0.1818 0.4545 (  3986 PWs)   bands (ev):

   -69.2049 -39.0989 -35.3073 -35.2797 -35.2788 -15.5656 -15.3112 -15.3084
    14.0172  14.6821  15.3921  15.7788  16.1845  16.4450  18.3322  18.5953
    18.6807  20.5299

          k = 0.1818 0.2727 0.2727 (  3994 PWs)   bands (ev):

   -69.2053 -39.1027 -35.2945 -35.2893 -35.2787 -15.4236 -15.4100 -15.3143
    13.2274  14.9964  15.4273  15.8397  15.9189  15.9976  18.8252  19.0096
    19.3285  20.0778

          k = 0.1818 0.2727 0.3636 (  3988 PWs)   bands (ev):

   -69.2045 -39.0926 -35.3031 -35.2918 -35.2783 -15.5016 -15.4059 -15.3060
    13.7701  14.8707  15.5750  15.7253  15.9737  16.0870  18.5906  18.8383
    19.2207  20.3803

          k = 0.1818 0.2727 0.4545 (  3991 PWs)   bands (ev):

   -69.2039 -39.0866 -35.3091 -35.2925 -35.2779 -15.5511 -15.3998 -15.3010
    14.1253  14.6660  15.5488  15.6706  16.0602  16.5356  18.2319  18.6757
    19.1298  20.6015

          k = 0.1818 0.3636 0.3636 (  3990 PWs)   bands (ev):

   -69.2036 -39.0817 -35.3055 -35.3023 -35.2773 -15.4928 -15.4851 -15.2978
    13.9820  14.6576  15.5747  15.6896  16.2719  16.2956  18.4622  18.6970
    19.4851  20.5436

          k = 0.1818 0.3636 0.4545 (  3993 PWs)   bands (ev):

   -69.2031 -39.0753 -35.3108 -35.3045 -35.2767 -15.5378 -15.4816 -15.2929
    14.0272  14.5323  15.5200  15.5675  16.4915  16.9250  18.1794  18.5402
    19.5617  20.7854

          k = 0.1818 0.4545 0.4545 (  4002 PWs)   bands (ev):

   -69.2026 -39.0685 -35.3120 -35.3116 -35.2760 -15.5303 -15.5293 -15.2880
    13.9234  14.4435  15.4329  15.4545  17.1746  17.2812  18.0690  18.2503
    19.7506  21.0766

          k = 0.2727 0.2727 0.2727 (  3998 PWs)   bands (ev):

   -69.2044 -39.0915 -35.2928 -35.2928 -35.2886 -15.4132 -15.4033 -15.4033
    13.7990  15.4441  15.4441  15.5182  15.7193  15.7193  18.8337  18.8337
    19.7984  19.7984

          k = 0.2727 0.2727 0.3636 (  3992 PWs)   bands (ev):

   -69.2035 -39.0812 -35.3030 -35.2913 -35.2908 -15.4904 -15.3973 -15.3971
    14.2965  15.1356  15.4426  15.6207  15.7209  15.9354  18.5785  18.6239
    19.6455  20.2948

          k = 0.2727 0.2727 0.4545 (  3990 PWs)   bands (ev):

   -69.2030 -39.0751 -35.3095 -35.2915 -35.2905 -15.5396 -15.3934 -15.3900
    14.5098  14.9115  15.4302  15.5701  15.9004  16.3710  18.1751  18.4970
    19.5915  20.6353

          k = 0.2727 0.3636 0.3636 (  3988 PWs)   bands (ev):

   -69.2027 -39.0707 -35.3037 -35.3021 -35.2902 -15.4821 -15.4783 -15.3891
    14.5958  15.0027  15.4918  15.5872  15.8170  16.0595  18.4143  18.4173
    19.9497  20.4947

          k = 0.2727 0.3636 0.4545 (  3992 PWs)   bands (ev):

   -69.2021 -39.0645 -35.3099 -35.3030 -35.2896 -15.5291 -15.4742 -15.3843
    14.5794  14.9171  15.4521  15.5076  16.1032  16.4659  18.0772  18.3313
    20.0121  20.8207

          k = 0.2727 0.4545 0.4545 (  4000 PWs)   bands (ev):

   -69.2016 -39.0581 -35.3102 -35.3100 -35.2888 -15.5231 -15.5225 -15.3799
    14.5067  14.8769  15.3854  15.4135  16.6254  16.6526  17.9060  18.1706
    20.1898  21.1137

          k = 0.3636 0.3636 0.3636 (  3999 PWs)   bands (ev):

   -69.2018 -39.0606 -35.3021 -35.3021 -35.3018 -15.4723 -15.4721 -15.4721
    14.9948  15.3300  15.4470  15.4470  15.8146  15.8146  18.2411  18.2411
    20.5003  20.5003

          k = 0.3636 0.3636 0.4545 (  4008 PWs)   bands (ev):

   -69.2013 -39.0545 -35.3090 -35.3018 -35.3012 -15.5211 -15.4684 -15.4664
    14.9932  15.1653  15.4767  15.6074  15.7984  16.1605  17.9824  18.1639
    20.5130  20.9127

          k = 0.3636 0.4545 0.4545 (  3994 PWs)   bands (ev):

   -69.2008 -39.0486 -35.3085 -35.3085 -35.3006 -15.5164 -15.5163 -15.4633
    15.1009  15.2496  15.3888  15.4963  16.0924  16.1437  17.8651  18.0301
    20.7354  21.1431

          k = 0.4545 0.4545 0.4545 (  3972 PWs)   bands (ev):

   -69.2003 -39.0430 -35.3076 -35.3075 -35.3075 -15.5126 -15.5126 -15.5122
    15.3317  15.4752  15.4752  15.7776  15.7776  15.8004  17.8552  17.8552
    21.1598  21.1598

     the Fermi energy is    17.5936 ev

!    total energy              =    -448.58655249 Ry
     estimated scf accuracy    <          4.6E-09 Ry
     smearing contrib. (-TS)   =       0.00005040 Ry
     internal energy E=F+TS    =    -448.58660289 Ry

     The total energy is F=E-TS. E is the sum of the following terms:
     one-electron contribution =    -151.34258934 Ry
     hartree contribution      =      91.61754648 Ry
     xc contribution           =     -52.88701350 Ry
     ewald contribution        =    -259.82070277 Ry
     one-center paw contrib.   =     -76.15384375 Ry

     convergence has been achieved in  36 iterations

     negative rho (up, down):  9.642E-04 0.000E+00

     Forces acting on atoms (cartesian axes, Ry/au):

     atom    1 type  1   force =     0.00000000    0.00000000    0.00000000
     atom    2 type  2   force =     0.00000000    0.00000000    0.00000000

     Total force =     0.000000     Total SCF correction =     0.000000


     Computing stress (Cartesian axis) and pressure


     negative rho (up, down):  9.642E-04 0.000E+00
          total   stress  (Ry/bohr**3)                   (kbar)     P=       31.33
   0.00021297   0.00000000   0.00000000           31.33        0.00        0.00
   0.00000000   0.00021297   0.00000000            0.00       31.33        0.00
   0.00000000   0.00000000   0.00021297            0.00        0.00       31.33


     BFGS Geometry Optimization
     Energy error            =      5.8E-04 Ry
     Gradient error          =      0.0E+00 Ry/Bohr
     Cell gradient error     =      3.1E+01 kbar

     number of scf cycles    =   1
     number of bfgs steps    =   0

     enthalpy           new  =    -448.5865524893 Ry

     new trust radius        =       0.0139349891 bohr
     new conv_thr            =       0.0000000100 Ry

     new unit-cell volume =    174.00905 a.u.^3 (    25.78548 Ang^3 )
     density =      6.67887 g/cm^3

CELL_PARAMETERS (alat=  5.55330037)
   1.005324145   0.000000000   0.000000000
   0.000000000   1.005324145   0.000000000
   0.000000000   0.000000000   1.005324145

ATOMIC_POSITIONS (crystal)
Fe               0.5000000000        0.5000000000        0.5000000000
Ti               0.0000000000        0.0000000000        0.0000000000



     Writing config-only to output data dir ./TiFe.save/ :
     XML data file
     NEW-OLD atomic charge density approx. for the potential
     New effective cutoffs (rho, wfc): 1717.53  122.68

     Check: negative core charge=   -0.000001

     negative rho (up, down):  9.812E-04 0.000E+00

     total cpu time spent up to now is       34.8 secs

     per-process dynamical memory:   228.9 Mb

     Self-consistent Calculation

     iteration #  1     ecut=   124.00 Ry     beta= 0.70
     Davidson diagonalization with overlap
     ethr =  1.00E-06,  avg # of iterations =  5.1

     negative rho (up, down):  9.701E-04 0.000E+00

     total cpu time spent up to now is       36.2 secs

     total energy              =    -448.58668321 Ry
     estimated scf accuracy    <       0.00005799 Ry

     iteration #  2     ecut=   124.00 Ry     beta= 0.70
     Davidson diagonalization with overlap
     ethr =  2.07E-07,  avg # of iterations =  4.2

     negative rho (up, down):  9.660E-04 0.000E+00

     total cpu time spent up to now is       37.2 secs

     total energy              =    -448.58656049 Ry
     estimated scf accuracy    <       0.00427516 Ry

     iteration #  3     ecut=   124.00 Ry     beta= 0.70
     Davidson diagonalization with overlap
     ethr =  2.07E-07,  avg # of iterations =  4.8

     negative rho (up, down):  9.679E-04 0.000E+00

     total cpu time spent up to now is       38.2 secs

     total energy              =    -448.58683189 Ry
     estimated scf accuracy    <       0.00007161 Ry

     iteration #  4     ecut=   124.00 Ry     beta= 0.70
     Davidson diagonalization with overlap
     ethr =  2.07E-07,  avg # of iterations =  1.4

     negative rho (up, down):  9.677E-04 0.000E+00

     total cpu time spent up to now is       39.0 secs

     total energy              =    -448.58683777 Ry
     estimated scf accuracy    <       0.00000675 Ry

     iteration #  5     ecut=   124.00 Ry     beta= 0.70
     Davidson diagonalization with overlap
     ethr =  2.41E-08,  avg # of iterations =  3.8

     negative rho (up, down):  9.673E-04 0.000E+00

     total cpu time spent up to now is       40.0 secs

     total energy              =    -448.58683915 Ry
     estimated scf accuracy    <       0.00000019 Ry

     iteration #  6     ecut=   124.00 Ry     beta= 0.70
     Davidson diagonalization with overlap
     ethr =  6.68E-10,  avg # of iterations =  5.1

     negative rho (up, down):  9.671E-04 0.000E+00

     total cpu time spent up to now is       41.1 secs

     total energy              =    -448.58683930 Ry
     estimated scf accuracy    <       0.00000018 Ry

     iteration #  7     ecut=   124.00 Ry     beta= 0.70
     Davidson diagonalization with overlap
     ethr =  6.29E-10,  avg # of iterations =  2.0

     negative rho (up, down):  9.672E-04 0.000E+00

     total cpu time spent up to now is       42.0 secs

     total energy              =    -448.58683929 Ry
     estimated scf accuracy    <       0.00000005 Ry

     iteration #  8     ecut=   124.00 Ry     beta= 0.70
     Davidson diagonalization with overlap
     ethr =  1.73E-10,  avg # of iterations =  2.0

     negative rho (up, down):  9.673E-04 0.000E+00

     total cpu time spent up to now is       42.9 secs

     End of self-consistent calculation

          k = 0.0000 0.0000 0.0000 (  3911 PWs)   bands (ev):

   -69.5232 -39.5079 -35.5836 -35.5836 -35.5836 -15.6066 -15.6066 -15.6066
     9.8799  13.6244  13.6244  16.3532  16.3532  16.3532  18.6497  18.6497
    20.5457  20.5457

          k = 0.0000 0.0000 0.0904 (  3947 PWs)   bands (ev):

   -69.5229 -39.5059 -35.5860 -35.5832 -35.5832 -15.6342 -15.6049 -15.6049
    10.0503  13.7061  13.7111  16.3406  16.3406  16.3903  18.5470  18.6881
    20.3010  20.3010

          k = 0.0000 0.0000 0.1809 (  3964 PWs)   bands (ev):

   -69.5222 -39.5004 -35.5925 -35.5823 -35.5823 -15.7078 -15.6004 -15.6004
    10.5449  13.9352  13.9452  16.3117  16.3117  16.4942  18.2500  18.7745
    19.7309  19.7309

          k = 0.0000 0.0000 0.2713 (  3988 PWs)   bands (ev):

   -69.5214 -39.4933 -35.6009 -35.5810 -35.5810 -15.8031 -15.5945 -15.5945
    11.3140  14.1878  14.3214  16.2867  16.2867  16.6417  17.7950  18.8035
    19.0996  19.0996

          k = 0.0000 0.0000 0.3617 (  4008 PWs)   bands (ev):

   -69.5205 -39.4867 -35.6086 -35.5799 -35.5799 -15.8896 -15.5891 -15.5891
    12.2656  14.2849  14.7868  16.2811  16.2811  16.7919  17.2540  18.5827
    18.5827  18.6102

          k = 0.0000 0.0000 0.4521 (  3992 PWs)   bands (ev):

   -69.5200 -39.4828 -35.6131 -35.5792 -35.5792 -15.9406 -15.5858 -15.5858
    13.2311  14.0089  15.2035  16.2890  16.2890  16.7910  16.8897  18.2904
    18.2904  18.2994

          k = 0.0000 0.0904 0.0904 (  3966 PWs)   bands (ev):

   -69.5227 -39.5037 -35.5868 -35.5847 -35.5829 -15.6352 -15.6294 -15.6031
    10.2173  13.7834  13.7988  16.2604  16.3204  16.4839  18.5321  18.6596
    20.0323  20.0562

          k = 0.0000 0.0904 0.1809 (  3978 PWs)   bands (ev):

   -69.5220 -39.4980 -35.5929 -35.5846 -35.5820 -15.7055 -15.6268 -15.5985
    10.7014  13.9950  14.0387  16.1818  16.2708  16.5985  18.3036  18.7350
    19.5003  19.5339

          k = 0.0000 0.0904 0.2713 (  3995 PWs)   bands (ev):

   -69.5211 -39.4904 -35.6015 -35.5839 -35.5807 -15.7998 -15.6202 -15.5923
    11.4507  14.2496  14.3873  16.1389  16.2149  16.6816  17.9161  18.7029
    19.0093  19.0452

          k = 0.0000 0.0904 0.3617 (  3991 PWs)   bands (ev):

   -69.5203 -39.4835 -35.6093 -35.5832 -35.5796 -15.8855 -15.6140 -15.5866
    12.3706  14.3373  14.8165  16.1437  16.1644  16.6881  17.4725  18.3000
    18.7186  18.8541

          k = 0.0000 0.0904 0.4521 (  3999 PWs)   bands (ev):

   -69.5198 -39.4794 -35.6139 -35.5828 -35.5789 -15.9359 -15.6103 -15.5833
    13.2923  14.0577  15.1973  16.0976  16.1788  16.6358  17.1528  18.0109
    18.5870  18.6617

          k = 0.0000 0.1809 0.1809 (  3972 PWs)   bands (ev):

   -69.5213 -39.4914 -35.5955 -35.5894 -35.5810 -15.7063 -15.6901 -15.5932
    11.1509  14.1376  14.3087  16.0118  16.1768  16.6733  18.3540  18.6950
    18.9937  19.2175

          k = 0.0000 0.1809 0.2713 (  4003 PWs)   bands (ev):

   -69.5204 -39.4828 -35.6031 -35.5914 -35.5799 -15.7911 -15.6883 -15.5864
    11.8327  14.2966  14.6762  15.8933  16.0862  16.5994  18.1853  18.4539
    18.8501  19.0425

          k = 0.0000 0.1809 0.3617 (  3997 PWs)   bands (ev):

   -69.5196 -39.4749 -35.6112 -35.5920 -35.5787 -15.8743 -15.6804 -15.5801
    12.6382  14.3226  15.0542  15.8578  16.0552  16.3951  17.8900  18.1197
    18.9689  19.0612

          k = 0.0000 0.1809 0.4521 (  3990 PWs)   bands (ev):

   -69.5191 -39.4702 -35.6161 -35.5923 -35.5781 -15.9233 -15.6756 -15.5764
    13.3912  14.0778  15.3309  15.9067  16.0843  16.1830  17.7228  17.8786
    18.9858  19.1551

          k = 0.0000 0.2713 0.2713 (  4000 PWs)   bands (ev):

   -69.5195 -39.4728 -35.6068 -35.5996 -35.5787 -15.7876 -15.7687 -15.5787
    12.3747  14.2730  15.1141  15.6899  16.0366  16.3383  18.2353  18.4099
    18.7509  19.2113

          k = 0.0000 0.2713 0.3617 (  3993 PWs)   bands (ev):

   -69.5187 -39.4635 -35.6139 -35.6034 -35.5776 -15.8597 -15.7664 -15.5716
    12.9397  14.1504  15.5476  15.5825  16.0217  16.1828  18.0545  18.3884
    18.9145  19.4804

          k = 0.0000 0.2713 0.4521 (  3996 PWs)   bands (ev):

   -69.5183 -39.4580 -35.6190 -35.6048 -35.5770 -15.9069 -15.7602 -15.5673
    13.3715  13.9544  15.5947  15.7654  15.7852  16.5223  17.8125  18.3459
    19.1170  19.7219

          k = 0.0000 0.3617 0.3617 (  4002 PWs)   bands (ev):

   -69.5179 -39.4531 -35.6172 -35.6130 -35.5767 -15.8509 -15.8399 -15.5637
    13.1489  13.9429  15.4000  15.6826  16.1384  16.5668  18.1752  18.7397
    18.7511  19.8755

          k = 0.0000 0.3617 0.4521 (  3999 PWs)   bands (ev):

   -69.5175 -39.4469 -35.6217 -35.6162 -35.5761 -15.8917 -15.8372 -15.5590
    13.2454  13.8016  15.3492  15.4484  16.4974  17.1990  17.9382  18.7958
    18.9574  20.1715

          k = 0.0000 0.4521 0.4521 (  3998 PWs)   bands (ev):

   -69.5170 -39.4402 -35.6234 -35.6228 -35.5755 -15.8833 -15.8818 -15.5541
    13.1440  13.7092  15.2311  15.2643  17.1834  17.6455  18.3079  18.4888
    19.0549  20.4367

          k = 0.0904 0.0904 0.0904 (  3959 PWs)   bands (ev):

   -69.5224 -39.5015 -35.5864 -35.5864 -35.5836 -15.6355 -15.6277 -15.6277
    10.3815  13.8723  13.8723  16.2383  16.2383  16.5589  18.5826  18.5826
    19.6243  20.2808

          k = 0.0904 0.0904 0.1809 (  3966 PWs)   bands (ev):

   -69.5217 -39.4955 -35.5930 -35.5855 -35.5835 -15.7031 -15.6264 -15.6231
    10.8565  14.0860  14.1007  16.1303  16.1798  16.6386  18.3605  18.6982
    19.1608  19.7079

          k = 0.0904 0.0904 0.2713 (  3992 PWs)   bands (ev):

   -69.5209 -39.4876 -35.6018 -35.5842 -35.5831 -15.7966 -15.6187 -15.6171
    11.5886  14.3494  14.4173  16.0724  16.1003  16.6339  18.0249  18.6480
    18.9684  19.0858

          k = 0.0904 0.0904 0.3617 (  3994 PWs)   bands (ev):

   -69.5200 -39.4803 -35.6099 -35.5830 -35.5828 -15.8814 -15.6116 -15.6115
    12.4806  14.4191  14.8171  16.0024  16.1011  16.5508  17.6494  18.3659
    18.5909  19.0598

          k = 0.0904 0.0904 0.4521 (  4007 PWs)   bands (ev):

   -69.5195 -39.4760 -35.6146 -35.5826 -35.5823 -15.9314 -15.6083 -15.6074
    13.3644  14.1254  15.1671  15.8806  16.2120  16.4640  17.3794  18.0832
    18.3201  19.1591

          k = 0.0904 0.1809 0.1809 (  3984 PWs)   bands (ev):

   -69.5211 -39.4887 -35.5951 -35.5900 -35.5835 -15.7033 -15.6884 -15.6191
    11.3015  14.2385  14.3580  15.9755  16.0724  16.6017  18.4216  18.6671
    18.8833  19.4304

          k = 0.0904 0.1809 0.2713 (  3994 PWs)   bands (ev):

   -69.5202 -39.4799 -35.6031 -35.5914 -35.5829 -15.7880 -15.6860 -15.6118
    11.9740  14.4131  14.6942  15.8504  15.9744  16.4246  18.2726  18.5722
    18.8862  19.0989

          k = 0.0904 0.1809 0.3617 (  4001 PWs)   bands (ev):

   -69.5194 -39.4718 -35.6115 -35.5918 -35.5821 -15.8707 -15.6781 -15.6051
    12.7630  14.4466  15.0096  15.7776  15.9648  16.2459  18.0411  18.2315
    18.7477  19.3543

          k = 0.0904 0.1809 0.4521 (  3993 PWs)   bands (ev):

   -69.5189 -39.4669 -35.6165 -35.5920 -35.5816 -15.9195 -15.6733 -15.6011
    13.4934  14.1866  15.2398  15.7098  16.0651  16.1865  17.8699  17.9475
    18.5490  19.7320

          k = 0.0904 0.2713 0.2713 (  3989 PWs)   bands (ev):

   -69.5193 -39.4698 -35.6064 -35.5998 -35.5820 -15.7841 -15.7669 -15.6039
    12.5194  14.3942  15.1235  15.6519  15.9110  16.1307  18.3500  18.5631
    18.7330  19.3412

          k = 0.0904 0.2713 0.3617 (  3985 PWs)   bands (ev):

   -69.5185 -39.4605 -35.6137 -35.6033 -35.5811 -15.8566 -15.7641 -15.5966
    13.0811  14.2731  15.4850  15.5436  15.9077  16.0523  18.1348  18.4765
    18.8018  19.7432

          k = 0.0904 0.2713 0.4521 (  4006 PWs)   bands (ev):

   -69.5180 -39.4550 -35.6190 -35.6044 -35.5805 -15.9038 -15.7581 -15.5922
    13.4991  14.0783  15.5129  15.5594  15.8552  16.4336  17.8486  18.4479
    18.7303  20.2155

          k = 0.0904 0.3617 0.3617 (  3992 PWs)   bands (ev):

   -69.5177 -39.4502 -35.6168 -35.6129 -35.5801 -15.8480 -15.8381 -15.5887
    13.2925  14.0649  15.3699  15.5950  16.0965  16.3980  18.1415  18.6299
    18.8385  20.1795

          k = 0.0904 0.3617 0.4521 (  4002 PWs)   bands (ev):

   -69.5172 -39.4440 -35.6214 -35.6158 -35.5795 -15.8893 -15.8352 -15.5841
    13.3796  13.9274  15.3171  15.3979  16.4229  17.0249  17.8983  18.5921
    18.9289  20.4085

          k = 0.0904 0.4521 0.4521 (  3993 PWs)   bands (ev):

   -69.5167 -39.4374 -35.6230 -35.6224 -35.5789 -15.8814 -15.8800 -15.5792
    13.2787  13.8351  15.2087  15.2376  17.1250  17.5013  18.0680  18.1597
    19.1317  20.6279

          k = 0.1809 0.1809 0.1809 (  3989 PWs)   bands (ev):

   -69.5204 -39.4815 -35.5940 -35.5940 -35.5880 -15.6995 -15.6836 -15.6836
    11.7308  14.4976  14.4976  15.8785  15.8785  16.3442  18.5851  18.5851
    18.9378  19.6673

          k = 0.1809 0.1809 0.2713 (  3992 PWs)   bands (ev):

   -69.5195 -39.4721 -35.6032 -35.5926 -35.5898 -15.7797 -15.6820 -15.6773
    12.3692  14.7032  14.7585  15.7438  15.7481  16.0381  18.4608  18.6546
    19.0708  19.2360

          k = 0.1809 0.1809 0.3617 (  3994 PWs)   bands (ev):

   -69.5187 -39.4634 -35.6123 -35.5914 -35.5909 -15.8611 -15.6718 -15.6716
    13.0924  14.7232  14.9328  15.6101  15.7750  15.9683  18.3302  18.3912
    18.6061  19.7840

          k = 0.1809 0.1809 0.4521 (  3986 PWs)   bands (ev):

   -69.5182 -39.4583 -35.6177 -35.5914 -35.5906 -15.9091 -15.6681 -15.6657
    13.7234  14.3929  15.1193  15.4901  15.8868  16.1403  17.9862  18.2584
    18.3395  20.1486

          k = 0.1809 0.2713 0.2713 (  3994 PWs)   bands (ev):

   -69.5186 -39.4619 -35.6052 -35.6007 -35.5906 -15.7745 -15.7619 -15.6711
    12.9251  14.7245  15.1451  15.5537  15.6295  15.7057  18.4768  18.6562
    18.9760  19.7031

          k = 0.1809 0.2713 0.3617 (  3988 PWs)   bands (ev):

   -69.5178 -39.4525 -35.6134 -35.6029 -35.5902 -15.8485 -15.7579 -15.6633
    13.4745  14.5952  15.2922  15.4400  15.6779  15.7907  18.2449  18.4875
    18.8708  20.0037

          k = 0.1809 0.2713 0.4521 (  3991 PWs)   bands (ev):

   -69.5173 -39.4469 -35.6192 -35.6034 -35.5898 -15.8955 -15.7522 -15.6585
    13.8439  14.3849  15.2703  15.3839  15.7594  16.2236  17.8899  18.3298
    18.7824  20.2190

          k = 0.1809 0.3617 0.3617 (  3990 PWs)   bands (ev):

   -69.5170 -39.4424 -35.6155 -35.6127 -35.5893 -15.8403 -15.8331 -15.6555
    13.7026  14.3834  15.2947  15.4057  15.9673  15.9842  18.1196  18.3466
    19.1289  20.1637

          k = 0.1809 0.3617 0.4521 (  3993 PWs)   bands (ev):

   -69.5166 -39.4364 -35.6207 -35.6147 -35.5887 -15.8830 -15.8298 -15.6508
    13.7611  14.2568  15.2408  15.2863  16.1780  16.6005  17.8390  18.1946
    19.2035  20.3995

          k = 0.1809 0.4521 0.4521 (  4002 PWs)   bands (ev):

   -69.5161 -39.4301 -35.6217 -35.6213 -35.5880 -15.8760 -15.8750 -15.6463
    13.6646  14.1707  15.1555  15.1763  16.8489  16.9481  17.7301  17.9098
    19.3873  20.6846

          k = 0.2713 0.2713 0.2713 (  3998 PWs)   bands (ev):

   -69.5178 -39.4515 -35.6037 -35.6037 -35.6000 -15.7648 -15.7555 -15.7555
    13.4912  15.1629  15.1629  15.2359  15.4337  15.4337  18.4837  18.4837
    19.4358  19.4358

          k = 0.2713 0.2713 0.3617 (  3992 PWs)   bands (ev):

   -69.5170 -39.4419 -35.6133 -35.6024 -35.6019 -15.8380 -15.7499 -15.7495
    13.9955  14.8564  15.1641  15.3338  15.4316  15.6415  18.2314  18.2789
    19.2867  19.9206

          k = 0.2713 0.2713 0.4521 (  3990 PWs)   bands (ev):

   -69.5165 -39.4362 -35.6195 -35.6025 -35.6015 -15.8847 -15.7460 -15.7431
    14.2270  14.6297  15.1545  15.2813  15.6001  16.0641  17.8344  18.1551
    19.2339  20.2525

          k = 0.2713 0.3617 0.3617 (  3988 PWs)   bands (ev):

   -69.5162 -39.4321 -35.6139 -35.6125 -35.6013 -15.8301 -15.8266 -15.7420
    14.3084  14.7227  15.2119  15.3007  15.5201  15.7592  18.0726  18.0739
    19.5836  20.1163

          k = 0.2713 0.3617 0.4521 (  3992 PWs)   bands (ev):

   -69.5157 -39.4263 -35.6197 -35.6132 -35.6008 -15.8747 -15.8227 -15.7374
    14.3066  14.6361  15.1729  15.2228  15.7961  16.1545  17.7397  17.9913
    19.6445  20.4344

          k = 0.2713 0.4521 0.4521 (  4000 PWs)   bands (ev):

   -69.5152 -39.4204 -35.6200 -35.6198 -35.6000 -15.8690 -15.8685 -15.7332
    14.2391  14.5960  15.1068  15.1333  16.3082  16.3370  17.5732  17.8325
    19.8175  20.7210

          k = 0.3617 0.3617 0.3617 (  3999 PWs)   bands (ev):

   -69.5154 -39.4227 -35.6124 -35.6124 -35.6122 -15.8210 -15.8206 -15.8206
    14.7213  15.0219  15.1658  15.1658  15.5205  15.5205  17.9023  17.9023
    20.1219  20.1219

          k = 0.3617 0.3617 0.4521 (  4008 PWs)   bands (ev):

   -69.5149 -39.4171 -35.6189 -35.6122 -35.6116 -15.8671 -15.8170 -15.8153
    14.7197  14.8826  15.1912  15.3208  15.4940  15.8580  17.6479  17.8270
    20.1343  20.5244

          k = 0.3617 0.4521 0.4521 (  3994 PWs)   bands (ev):

   -69.5144 -39.4116 -35.6184 -35.6184 -35.6110 -15.8626 -15.8625 -15.8122
    14.8252  14.9640  15.1070  15.2086  15.7890  15.8412  17.5335  17.6952
    20.3513  20.7496

          k = 0.4521 0.4521 0.4521 (  3972 PWs)   bands (ev):

   -69.5140 -39.4063 -35.6176 -35.6175 -35.6175 -15.8589 -15.8589 -15.8586
    15.0487  15.1862  15.1862  15.4877  15.4877  15.5042  17.5240  17.5240
    20.7658  20.7658

     the Fermi energy is    17.2591 ev

!    total energy              =    -448.58683929 Ry
     estimated scf accuracy    <          6.2E-09 Ry
     smearing contrib. (-TS)   =       0.00006485 Ry
     internal energy E=F+TS    =    -448.58690414 Ry

     The total energy is F=E-TS. E is the sum of the following terms:
     one-electron contribution =    -153.46681064 Ry
     hartree contribution      =      92.33751077 Ry
     xc contribution           =     -52.85940955 Ry
     ewald contribution        =    -258.44470563 Ry
     one-center paw contrib.   =     -76.15348910 Ry

     convergence has been achieved in   8 iterations

     negative rho (up, down):  9.673E-04 0.000E+00

     Forces acting on atoms (cartesian axes, Ry/au):

     atom    1 type  1   force =     0.00000000    0.00000000    0.00000000
     atom    2 type  2   force =     0.00000000    0.00000000    0.00000000

     Total force =     0.000000     Total SCF correction =     0.000000


     Computing stress (Cartesian axis) and pressure


     negative rho (up, down):  9.673E-04 0.000E+00
          total   stress  (Ry/bohr**3)                   (kbar)     P=       -0.47
  -0.00000322   0.00000000   0.00000000           -0.47        0.00        0.00
   0.00000000  -0.00000322   0.00000000            0.00       -0.47        0.00
   0.00000000   0.00000000  -0.00000322            0.00        0.00       -0.47

     Energy error            =      2.9E-04 Ry
     Gradient error          =      0.0E+00 Ry/Bohr
     Cell gradient error     =      4.7E-01 kbar

     number of scf cycles    =   2
     number of bfgs steps    =   1

     enthalpy           old  =    -448.5865524893 Ry
     enthalpy           new  =    -448.5868392939 Ry

     CASE: enthalpy          _new < enthalpy          _old

     new trust radius        =       0.0002099747 bohr
     new conv_thr            =            1.0E-10 Ry

     new unit-cell volume =    173.96750 a.u.^3 (    25.77932 Ang^3 )
     density =      6.68046 g/cm^3

CELL_PARAMETERS (alat=  5.55330037)
   1.005244133   0.000000000   0.000000000
   0.000000000   1.005244133   0.000000000
   0.000000000   0.000000000   1.005244133

ATOMIC_POSITIONS (crystal)
Fe               0.5000000000        0.5000000000        0.5000000000
Ti               0.0000000000        0.0000000000        0.0000000000



     Writing config-only to output data dir ./TiFe.save/ :
     XML data file
     NEW-OLD atomic charge density approx. for the potential
     New effective cutoffs (rho, wfc): 1717.81  122.70

     Check: negative core charge=   -0.000001

     negative rho (up, down):  9.670E-04 0.000E+00

     total cpu time spent up to now is       44.8 secs

     per-process dynamical memory:   228.9 Mb

     Self-consistent Calculation

     iteration #  1     ecut=   124.00 Ry     beta= 0.70
     Davidson diagonalization with overlap
     ethr =  1.00E-06,  avg # of iterations =  2.0

     Threshold (ethr) on eigenvalues was too large:
     Diagonalizing with lowered threshold

     Davidson diagonalization with overlap
     ethr =  5.16E-09,  avg # of iterations =  1.0

     negative rho (up, down):  9.665E-04 0.000E+00

     total cpu time spent up to now is       46.5 secs

     total energy              =    -448.58683807 Ry
     estimated scf accuracy    <       0.00000158 Ry

     iteration #  2     ecut=   124.00 Ry     beta= 0.70
     Davidson diagonalization with overlap
     ethr =  5.65E-09,  avg # of iterations =  4.8

     negative rho (up, down):  9.672E-04 0.000E+00

     total cpu time spent up to now is       47.7 secs

     total energy              =    -448.58682930 Ry
     estimated scf accuracy    <       0.00019127 Ry

     iteration #  3     ecut=   124.00 Ry     beta= 0.70
     Davidson diagonalization with overlap
     ethr =  5.65E-09,  avg # of iterations =  4.8

     negative rho (up, down):  9.671E-04 0.000E+00

     total cpu time spent up to now is       48.7 secs

     total energy              =    -448.58683934 Ry
     estimated scf accuracy    <       0.00000002 Ry

     iteration #  4     ecut=   124.00 Ry     beta= 0.70
     Davidson diagonalization with overlap
     ethr =  6.52E-11,  avg # of iterations =  5.9

     negative rho (up, down):  9.672E-04 0.000E+00

     total cpu time spent up to now is       49.9 secs

     total energy              =    -448.58683936 Ry
     estimated scf accuracy    <       0.00000002 Ry

     iteration #  5     ecut=   124.00 Ry     beta= 0.70
     Davidson diagonalization with overlap
     ethr =  6.38E-11,  avg # of iterations =  1.0

     negative rho (up, down):  9.672E-04 0.000E+00

     total cpu time spent up to now is       50.8 secs

     total energy              =    -448.58683936 Ry
     estimated scf accuracy    <          5.0E-09 Ry

     iteration #  6     ecut=   124.00 Ry     beta= 0.70
     Davidson diagonalization with overlap
     ethr =  1.79E-11,  avg # of iterations =  2.1

     negative rho (up, down):  9.672E-04 0.000E+00

     total cpu time spent up to now is       51.6 secs

     End of self-consistent calculation

          k = 0.0000 0.0000 0.0000 (  3911 PWs)   bands (ev):

   -69.5184 -39.5026 -35.5788 -35.5788 -35.5788 -15.6012 -15.6012 -15.6012
     9.8840  13.6280  13.6280  16.3578  16.3578  16.3578  18.6549  18.6549
    20.5516  20.5516

          k = 0.0000 0.0000 0.0904 (  3947 PWs)   bands (ev):

   -69.5182 -39.5005 -35.5813 -35.5785 -35.5785 -15.6288 -15.5995 -15.5995
    10.0543  13.7097  13.7147  16.3452  16.3452  16.3949  18.5522  18.6934
    20.3068  20.3068

          k = 0.0000 0.0000 0.1809 (  3964 PWs)   bands (ev):

   -69.5175 -39.4951 -35.5878 -35.5775 -35.5775 -15.7025 -15.5950 -15.5950
    10.5491  13.9390  13.9489  16.3163  16.3163  16.4988  18.2551  18.7798
    19.7365  19.7365

          k = 0.0000 0.0000 0.2713 (  3988 PWs)   bands (ev):

   -69.5166 -39.4879 -35.5962 -35.5763 -35.5763 -15.7979 -15.5891 -15.5891
    11.3183  14.1918  14.3252  16.2913  16.2913  16.6464  17.7998  18.8089
    19.1049  19.1049

          k = 0.0000 0.0000 0.3617 (  4008 PWs)   bands (ev):

   -69.5158 -39.4814 -35.6039 -35.5751 -35.5751 -15.8845 -15.5837 -15.5837
    12.2701  14.2891  14.7907  16.2857  16.2857  16.7966  17.2587  18.5878
    18.5878  18.6156

          k = 0.0000 0.0000 0.4522 (  3992 PWs)   bands (ev):

   -69.5153 -39.4775 -35.6084 -35.5744 -35.5744 -15.9355 -15.5804 -15.5804
    13.2357  14.0133  15.2076  16.2936  16.2936  16.7955  16.8945  18.2954
    18.2954  18.3048

          k = 0.0000 0.0904 0.0904 (  3966 PWs)   bands (ev):

   -69.5179 -39.4984 -35.5821 -35.5800 -35.5781 -15.6298 -15.6240 -15.5977
    10.2214  13.7870  13.8025  16.2649  16.3249  16.4885  18.5373  18.6648
    20.0380  20.0619

          k = 0.0000 0.0904 0.1809 (  3978 PWs)   bands (ev):

   -69.5172 -39.4926 -35.5881 -35.5799 -35.5772 -15.7002 -15.6214 -15.5931
    10.7056  13.9988  14.0425  16.1863  16.2754  16.6032  18.3086  18.7403
    19.5057  19.5394

          k = 0.0000 0.0904 0.2713 (  3995 PWs)   bands (ev):

   -69.5163 -39.4851 -35.5967 -35.5792 -35.5760 -15.7946 -15.6148 -15.5869
    11.4550  14.2536  14.3912  16.1434  16.2194  16.6863  17.9211  18.7083
    19.0146  19.0506

          k = 0.0000 0.0904 0.3617 (  3991 PWs)   bands (ev):

   -69.5155 -39.4781 -35.6046 -35.5784 -35.5748 -15.8803 -15.6086 -15.5812
    12.3750  14.3415  14.8205  16.1482  16.1690  16.6928  17.4773  18.3052
    18.7238  18.8594

          k = 0.0000 0.0904 0.4522 (  3999 PWs)   bands (ev):

   -69.5150 -39.4740 -35.6092 -35.5780 -35.5742 -15.9308 -15.6049 -15.5779
    13.2968  14.0620  15.2014  16.1021  16.1833  16.6405  17.1575  18.0161
    18.5921  18.6670

          k = 0.0000 0.1809 0.1809 (  3972 PWs)   bands (ev):

   -69.5166 -39.4860 -35.5907 -35.5847 -35.5763 -15.7010 -15.6848 -15.5878
    11.1552  14.1414  14.3126  16.0162  16.1813  16.6780  18.3591  18.7003
    18.9990  19.2229

          k = 0.0000 0.1809 0.2713 (  4003 PWs)   bands (ev):

   -69.5157 -39.4774 -35.5984 -35.5866 -35.5751 -15.7859 -15.6830 -15.5810
    11.8371  14.3005  14.6803  15.8977  16.0907  16.6041  18.1903  18.4591
    18.8554  19.0478

          k = 0.0000 0.1809 0.3617 (  3997 PWs)   bands (ev):

   -69.5149 -39.4695 -35.6065 -35.5873 -35.5740 -15.8691 -15.6751 -15.5747
    12.6426  14.3266  15.0584  15.8622  16.0597  16.3997  17.8949  18.1248
    18.9743  19.0665

          k = 0.0000 0.1809 0.4522 (  3990 PWs)   bands (ev):

   -69.5144 -39.4648 -35.6114 -35.5875 -35.5733 -15.9182 -15.6703 -15.5710
    13.3956  14.0821  15.3351  15.9111  16.0889  16.1875  17.7277  17.8837
    18.9913  19.1605

          k = 0.0000 0.2713 0.2713 (  4000 PWs)   bands (ev):

   -69.5148 -39.4674 -35.6021 -35.5948 -35.5739 -15.7824 -15.7634 -15.5733
    12.3791  14.2769  15.1183  15.6942  16.0412  16.3429  18.2404  18.4150
    18.7562  19.2167

          k = 0.0000 0.2713 0.3617 (  3993 PWs)   bands (ev):

   -69.5140 -39.4582 -35.6091 -35.5987 -35.5729 -15.8545 -15.7611 -15.5662
    12.9439  14.1544  15.5520  15.5868  16.0261  16.1875  18.0597  18.3935
    18.9199  19.4859

          k = 0.0000 0.2713 0.4522 (  3996 PWs)   bands (ev):

   -69.5135 -39.4527 -35.6143 -35.6000 -35.5723 -15.9017 -15.7550 -15.5619
    13.3756  13.9585  15.5990  15.7697  15.7897  16.5271  17.8176  18.3510
    19.1226  19.7275

          k = 0.0000 0.3617 0.3617 (  4002 PWs)   bands (ev):

   -69.5132 -39.4477 -35.6125 -35.6082 -35.5719 -15.8457 -15.8347 -15.5583
    13.1529  13.9469  15.4043  15.6869  16.1430  16.5716  18.1804  18.7449
    18.7565  19.8812

          k = 0.0000 0.3617 0.4522 (  3999 PWs)   bands (ev):

   -69.5127 -39.4415 -35.6170 -35.6115 -35.5713 -15.8865 -15.8319 -15.5536
    13.2492  13.8055  15.3534  15.4527  16.5021  17.2041  17.9434  18.8011
    18.9628  20.1772

          k = 0.0000 0.4522 0.4522 (  3998 PWs)   bands (ev):

   -69.5122 -39.4348 -35.6187 -35.6181 -35.5707 -15.8782 -15.8767 -15.5486
    13.1477  13.7132  15.2352  15.2684  17.1884  17.6506  18.3132  18.4942
    19.0603  20.4425

          k = 0.0904 0.0904 0.0904 (  3959 PWs)   bands (ev):

   -69.5177 -39.4961 -35.5817 -35.5817 -35.5788 -15.6302 -15.6223 -15.6223
    10.3856  13.8760  13.8760  16.2428  16.2428  16.5635  18.5878  18.5878
    19.6298  20.2865

          k = 0.0904 0.0904 0.1809 (  3966 PWs)   bands (ev):

   -69.5170 -39.4901 -35.5883 -35.5807 -35.5787 -15.6978 -15.6210 -15.6177
    10.8607  14.0898  14.1045  16.1348  16.1843  16.6433  18.3656  18.7034
    19.1662  19.7134

          k = 0.0904 0.0904 0.2713 (  3992 PWs)   bands (ev):

   -69.5161 -39.4822 -35.5971 -35.5794 -35.5784 -15.7913 -15.6133 -15.6117
    11.5929  14.3535  14.4212  16.0769  16.1048  16.6386  18.0299  18.6533
    18.9738  19.0911

          k = 0.0904 0.0904 0.3617 (  3994 PWs)   bands (ev):

   -69.5153 -39.4750 -35.6051 -35.5783 -35.5780 -15.8763 -15.6062 -15.6062
    12.4851  14.4233  14.8211  16.0069  16.1056  16.5555  17.6542  18.3712
    18.5961  19.0652

          k = 0.0904 0.0904 0.4522 (  4007 PWs)   bands (ev):

   -69.5148 -39.4706 -35.6099 -35.5778 -35.5776 -15.9263 -15.6029 -15.6020
    13.3688  14.1298  15.1712  15.8850  16.2166  16.4687  17.3841  18.0885
    18.3252  19.1645

          k = 0.0904 0.1809 0.1809 (  3984 PWs)   bands (ev):

   -69.5163 -39.4834 -35.5903 -35.5853 -35.5788 -15.6980 -15.6830 -15.6137
    11.3058  14.2423  14.3619  15.9799  16.0769  16.6064  18.4267  18.6724
    18.8885  19.4358

          k = 0.0904 0.1809 0.2713 (  3994 PWs)   bands (ev):

   -69.5154 -39.4745 -35.5983 -35.5867 -35.5781 -15.7827 -15.6807 -15.6065
    11.9784  14.4171  14.6983  15.8548  15.9789  16.4292  18.2777  18.5774
    18.8915  19.1043

          k = 0.0904 0.1809 0.3617 (  4001 PWs)   bands (ev):

   -69.5146 -39.4664 -35.6068 -35.5871 -35.5774 -15.8655 -15.6727 -15.5997
    12.7675  14.4507  15.0137  15.7819  15.9693  16.2504  18.0460  18.2367
    18.7530  19.3598

          k = 0.0904 0.1809 0.4522 (  3993 PWs)   bands (ev):

   -69.5141 -39.4616 -35.6118 -35.5872 -35.5769 -15.9143 -15.6679 -15.5957
    13.4978  14.1909  15.2440  15.7142  16.0696  16.1911  17.8749  17.9526
    18.5542  19.7377

          k = 0.0904 0.2713 0.2713 (  3989 PWs)   bands (ev):

   -69.5145 -39.4644 -35.6016 -35.5951 -35.5772 -15.7788 -15.7616 -15.5985
    12.5238  14.3981  15.1278  15.6562  15.9155  16.1352  18.3552  18.5682
    18.7383  19.3466

          k = 0.0904 0.2713 0.3617 (  3985 PWs)   bands (ev):

   -69.5137 -39.4551 -35.6090 -35.5985 -35.5763 -15.8515 -15.7588 -15.5912
    13.0854  14.2771  15.4893  15.5479  15.9121  16.0570  18.1400  18.4816
    18.8072  19.7488

          k = 0.0904 0.2713 0.4522 (  4006 PWs)   bands (ev):

   -69.5132 -39.4496 -35.6143 -35.5997 -35.5758 -15.8986 -15.7528 -15.5868
    13.5032  14.0824  15.5172  15.5637  15.8598  16.4384  17.8537  18.4530
    18.7356  20.2213

          k = 0.0904 0.3617 0.3617 (  3992 PWs)   bands (ev):

   -69.5129 -39.4448 -35.6121 -35.6082 -35.5753 -15.8428 -15.8329 -15.5833
    13.2965  14.0689  15.3742  15.5994  16.1011  16.4029  18.1467  18.6353
    18.8437  20.1853

          k = 0.0904 0.3617 0.4522 (  4002 PWs)   bands (ev):

   -69.5124 -39.4386 -35.6167 -35.6111 -35.5747 -15.8842 -15.8299 -15.5787
    13.3835  13.9314  15.3213  15.4021  16.4277  17.0299  17.9034  18.5974
    18.9341  20.4143

          k = 0.0904 0.4522 0.4522 (  3993 PWs)   bands (ev):

   -69.5120 -39.4320 -35.6183 -35.6177 -35.5741 -15.8762 -15.8748 -15.5738
    13.2825  13.8391  15.2129  15.2417  17.1299  17.5064  18.0732  18.1650
    19.1371  20.6337

          k = 0.1809 0.1809 0.1809 (  3989 PWs)   bands (ev):

   -69.5156 -39.4762 -35.5893 -35.5893 -35.5833 -15.6942 -15.6783 -15.6783
    11.7352  14.5016  14.5016  15.8829  15.8829  16.3488  18.5903  18.5903
    18.9431  19.6728

          k = 0.1809 0.1809 0.2713 (  3992 PWs)   bands (ev):

   -69.5147 -39.4667 -35.5985 -35.5879 -35.5851 -15.7744 -15.6766 -15.6720
    12.3737  14.7072  14.7626  15.7482  15.7525  16.0426  18.4659  18.6599
    19.0761  19.2414

          k = 0.1809 0.1809 0.3617 (  3994 PWs)   bands (ev):

   -69.5139 -39.4580 -35.6075 -35.5866 -35.5861 -15.8559 -15.6665 -15.6662
    13.0968  14.7274  14.9368  15.6145  15.7795  15.9728  18.3353  18.3965
    18.6113  19.7896

          k = 0.1809 0.1809 0.4522 (  3986 PWs)   bands (ev):

   -69.5135 -39.4529 -35.6130 -35.5867 -35.5859 -15.9040 -15.6628 -15.6603
    13.7278  14.3972  15.1234  15.4945  15.8913  16.1448  17.9914  18.2635
    18.3446  20.1543

          k = 0.1809 0.2713 0.2713 (  3994 PWs)   bands (ev):

   -69.5139 -39.4565 -35.6005 -35.5959 -35.5859 -15.7693 -15.7567 -15.6658
    12.9296  14.7285  15.1493  15.5580  15.6339  15.7101  18.4820  18.6615
    18.9813  19.7087

          k = 0.1809 0.2713 0.3617 (  3988 PWs)   bands (ev):

   -69.5131 -39.4471 -35.6087 -35.5981 -35.5854 -15.8433 -15.7527 -15.6579
    13.4789  14.5993  15.2964  15.4443  15.6824  15.7952  18.2501  18.4928
    18.8761  20.0093

          k = 0.1809 0.2713 0.4522 (  3991 PWs)   bands (ev):

   -69.5126 -39.4415 -35.6145 -35.5987 -35.5851 -15.8903 -15.7470 -15.6532
    13.8481  14.3891  15.2745  15.3882  15.7639  16.2283  17.8951  18.3350
    18.7876  20.2247

          k = 0.1809 0.3617 0.3617 (  3990 PWs)   bands (ev):

   -69.5123 -39.4370 -35.6108 -35.6080 -35.5845 -15.8351 -15.8279 -15.6501
    13.7068  14.3875  15.2989  15.4100  15.9718  15.9889  18.1247  18.3518
    19.1342  20.1693

          k = 0.1809 0.3617 0.4522 (  3993 PWs)   bands (ev):

   -69.5118 -39.4309 -35.6160 -35.6100 -35.5840 -15.8778 -15.8246 -15.6455
    13.7651  14.2609  15.2450  15.2906  16.1827  16.6054  17.8442  18.1997
    19.2089  20.4053

          k = 0.1809 0.4522 0.4522 (  4002 PWs)   bands (ev):

   -69.5113 -39.4247 -35.6170 -35.6166 -35.5833 -15.8708 -15.8698 -15.6409
    13.6685  14.1748  15.1596  15.1804  16.8538  16.9530  17.7352  17.9149
    19.3928  20.6905

          k = 0.2713 0.2713 0.2713 (  3998 PWs)   bands (ev):

   -69.5130 -39.4461 -35.5990 -35.5990 -35.5953 -15.7595 -15.7502 -15.7502
    13.4958  15.1671  15.1671  15.2401  15.4380  15.4380  18.4889  18.4889
    19.4412  19.4412

          k = 0.2713 0.2713 0.3617 (  3992 PWs)   bands (ev):

   -69.5122 -39.4365 -35.6086 -35.5976 -35.5972 -15.8328 -15.7446 -15.7442
    14.0000  14.8606  15.1683  15.3381  15.4359  15.6459  18.2366  18.2841
    19.2921  19.9262

          k = 0.2713 0.2713 0.4522 (  3990 PWs)   bands (ev):

   -69.5117 -39.4308 -35.6148 -35.5978 -35.5968 -15.8795 -15.7407 -15.7378
    14.2312  14.6339  15.1587  15.2856  15.6046  16.0687  17.8395  18.1603
    19.2393  20.2582

          k = 0.2713 0.3617 0.3617 (  3988 PWs)   bands (ev):

   -69.5114 -39.4267 -35.6092 -35.6078 -35.5966 -15.8249 -15.8214 -15.7367
    14.3127  14.7269  15.2161  15.3050  15.5245  15.7637  18.0777  18.0791
    19.5891  20.1220

          k = 0.2713 0.3617 0.4522 (  3992 PWs)   bands (ev):

   -69.5109 -39.4209 -35.6150 -35.6085 -35.5960 -15.8695 -15.8175 -15.7321
    14.3107  14.6403  15.1771  15.2271  15.8007  16.1592  17.7448  17.9964
    19.6500  20.4401

          k = 0.2713 0.4522 0.4522 (  4000 PWs)   bands (ev):

   -69.5105 -39.4150 -35.6153 -35.6151 -35.5953 -15.8638 -15.8633 -15.7279
    14.2431  14.6002  15.1110  15.1375  16.3129  16.3417  17.5782  17.8376
    19.8231  20.7269

          k = 0.3617 0.3617 0.3617 (  3999 PWs)   bands (ev):

   -69.5106 -39.4173 -35.6077 -35.6077 -35.6075 -15.8157 -15.8153 -15.8153
    14.7254  15.0265  15.1700  15.1700  15.5249  15.5249  17.9074  17.9074
    20.1276  20.1276

          k = 0.3617 0.3617 0.4522 (  4008 PWs)   bands (ev):

   -69.5101 -39.4116 -35.6142 -35.6075 -35.6068 -15.8619 -15.8118 -15.8101
    14.7238  14.8869  15.1955  15.3251  15.4985  15.8625  17.6530  17.8321
    20.1400  20.5303

          k = 0.3617 0.4522 0.4522 (  3994 PWs)   bands (ev):

   -69.5097 -39.4061 -35.6137 -35.6137 -35.6063 -15.8574 -15.8573 -15.8070
    14.8293  14.9683  15.1112  15.2129  15.7935  15.8457  17.5385  17.7003
    20.3570  20.7554

          k = 0.4522 0.4522 0.4522 (  3972 PWs)   bands (ev):

   -69.5092 -39.4008 -35.6129 -35.6128 -35.6128 -15.8538 -15.8538 -15.8534
    15.0529  15.1906  15.1906  15.4921  15.4921  15.5086  17.5290  17.5290
    20.7717  20.7717

     the Fermi energy is    17.2641 ev

!    total energy              =    -448.58683936 Ry
     estimated scf accuracy    <          9.7E-12 Ry
     smearing contrib. (-TS)   =       0.00006467 Ry
     internal energy E=F+TS    =    -448.58690403 Ry

     The total energy is F=E-TS. E is the sum of the following terms:
     one-electron contribution =    -153.43423762 Ry
     hartree contribution      =      92.32582451 Ry
     xc contribution           =     -52.85972277 Ry
     ewald contribution        =    -258.46527652 Ry
     one-center paw contrib.   =     -76.15349164 Ry

     convergence has been achieved in   6 iterations

     negative rho (up, down):  9.672E-04 0.000E+00

     Forces acting on atoms (cartesian axes, Ry/au):

     atom    1 type  1   force =     0.00000000    0.00000000    0.00000000
     atom    2 type  2   force =     0.00000000    0.00000000    0.00000000

     Total force =     0.000000     Total SCF correction =     0.000000


     Computing stress (Cartesian axis) and pressure


     negative rho (up, down):  9.672E-04 0.000E+00
          total   stress  (Ry/bohr**3)                   (kbar)     P=        0.01
   0.00000005   0.00000000   0.00000000            0.01        0.00        0.00
   0.00000000   0.00000005   0.00000000            0.00        0.01        0.00
   0.00000000   0.00000000   0.00000005            0.00        0.00        0.01

     Energy error            =      6.9E-08 Ry
     Gradient error          =      0.0E+00 Ry/Bohr
     Cell gradient error     =      8.0E-03 kbar

     bfgs converged in   3 scf cycles and   2 bfgs steps
     (criteria: energy <  1.0E-04 Ry, force <  1.0E-03 Ry/Bohr, cell <  1.0E-01 kbar)

     End of BFGS Geometry Optimization

     Final enthalpy           =    -448.5868393631 Ry

     File ./TiFe.bfgs deleted, as requested
Begin final coordinates
     new unit-cell volume =    173.96750 a.u.^3 (    25.77932 Ang^3 )
     density =      6.68046 g/cm^3

CELL_PARAMETERS (alat=  5.55330037)
   1.005244133   0.000000000   0.000000000
   0.000000000   1.005244133   0.000000000
   0.000000000   0.000000000   1.005244133

ATOMIC_POSITIONS (crystal)
Fe               0.5000000000        0.5000000000        0.5000000000
Ti               0.0000000000        0.0000000000        0.0000000000
End final coordinates



     Writing config-only to output data dir ./TiFe.save/ :
     XML data file

     Final scf calculation at the relaxed structure.
     The G-vectors are recalculated for the final unit cell
     Results may differ from those at the preceding step.

     Parallelization info
     --------------------
     sticks:   dense  smooth     PW     G-vecs:    dense   smooth      PW
     Min         538     153     44                26577     4051     640
     Max         540     154     45                26578     4054     643
     Sum        4309    1225    357               212623    32423    5137

     Using Slab Decomposition



     bravais-lattice index     =            0
     lattice parameter (alat)  =       5.5533  a.u.
     unit-cell volume          =     173.9675 (a.u.)^3
     number of atoms/cell      =            2
     number of atomic types    =            2
     number of electrons       =        28.00
     number of Kohn-Sham states=           18
     kinetic-energy cutoff     =     124.0000  Ry
     charge density cutoff     =    1736.0000  Ry
     scf convergence threshold =      1.0E-10
     mixing beta               =       0.7000
     number of iterations used =            8  plain     mixing
     press convergence thresh. =      1.0E-01
     Exchange-correlation= PBE
                           (   1   4   3   4   0   0   0)

     celldm(1)=   5.553300  celldm(2)=   0.000000  celldm(3)=   0.000000
     celldm(4)=   0.000000  celldm(5)=   0.000000  celldm(6)=   0.000000

     crystal axes: (cart. coord. in units of alat)
               a(1) = (   1.005244   0.000000   0.000000 )  
               a(2) = (   0.000000   1.005244   0.000000 )  
               a(3) = (   0.000000   0.000000   1.005244 )  

     reciprocal axes: (cart. coord. in units 2 pi/alat)
               b(1) = (  0.994783  0.000000  0.000000 )  
               b(2) = (  0.000000  0.994783  0.000000 )  
               b(3) = (  0.000000  0.000000  0.994783 )  


     PseudoPot. # 1 for Fe read from file:
     ../../pseudos/Fe.pbe-spn-kjpaw_psl.0.2.1.UPF
     MD5 check sum: e86618425769142926afa95317d90200
     Pseudo is Projector augmented-wave + core cor, Zval = 16.0
     Generated using "atomic" code by A. Dal Corso  v.5.0.99 svn rev. 10869
     Shape of augmentation charge: PSQ
     Using radial grid of 1191 points,  6 beta functions with: 
                l(1) =   0
                l(2) =   0
                l(3) =   1
                l(4) =   1
                l(5) =   2
                l(6) =   2
     Q(r) pseudized with 0 coefficients 


     PseudoPot. # 2 for Ti read from file:
     ../../pseudos/ti_pbe_v1.4.uspp.F.UPF
     MD5 check sum: 88a00a6731bd790ddea75d31a80cb452
     Pseudo is Ultrasoft + core correction, Zval = 12.0
     Generated by new atomic code, or converted to UPF format
     Using radial grid of  851 points,  6 beta functions with: 
                l(1) =   0
                l(2) =   0
                l(3) =   1
                l(4) =   1
                l(5) =   2
                l(6) =   2
     Q(r) pseudized with  6 coefficients,  rinner =    1.000   1.000   1.000
                                                       1.000   1.000

     atomic species   valence    mass     pseudopotential
     Fe               16.00    55.84500     Fe( 1.00)
     Ti               12.00    47.86700     Ti( 1.00)

     48 Sym. Ops., with inversion, found



   Cartesian axes

     site n.     atom                  positions (alat units)
         1        Fe     tau(   1) = (   0.5026221   0.5026221   0.5026221  )
         2        Ti     tau(   2) = (   0.0000000   0.0000000   0.0000000  )

     number of k points=    56  Marzari-Vanderbilt smearing, width (Ry)=  0.0050
                       cart. coord. in units 2pi/alat
        k(    1) = (   0.0000000   0.0000000   0.0000000), wk =   0.0015026
        k(    2) = (   0.0000000   0.0000000   0.0904348), wk =   0.0090158
[...]

     total cpu time spent up to now is       82.9 secs

     WARNING: integrated charge=    28.00002175, expected=    28.00000000

     total energy              =    -448.58686916 Ry
     estimated scf accuracy    <       0.00000462 Ry

     iteration # 28     ecut=   124.00 Ry     beta= 0.70
     Davidson diagonalization with overlap
     ethr =  1.65E-08,  avg # of iterations =  1.0

     negative rho (up, down):  9.669E-04 0.000E+00

     total cpu time spent up to now is       83.7 secs

     WARNING: integrated charge=    27.99998896, expected=    28.00000000

     total energy              =    -448.58686886 Ry
     estimated scf accuracy    <       0.00000098 Ry

     iteration # 29     ecut=   124.00 Ry     beta= 0.70
     Davidson diagonalization with overlap
     ethr =  3.51E-09,  avg # of iterations =  3.8

     negative rho (up, down):  9.674E-04 0.000E+00

     total cpu time spent up to now is       84.7 secs

     WARNING: integrated charge=    28.00000370, expected=    28.00000000

     total energy              =    -448.58686909 Ry
     estimated scf accuracy    <       0.00000054 Ry

     iteration # 30     ecut=   124.00 Ry     beta= 0.70
     Davidson diagonalization with overlap
     ethr =  1.92E-09,  avg # of iterations =  1.7

     negative rho (up, down):  9.674E-04 0.000E+00

     total cpu time spent up to now is       85.6 secs

     total energy              =    -448.58686914 Ry
     estimated scf accuracy    <          5.4E-09 Ry

     iteration # 31     ecut=   124.00 Ry     beta= 0.70
     Davidson diagonalization with overlap
     ethr =  1.92E-11,  avg # of iterations =  5.0

     negative rho (up, down):  9.673E-04 0.000E+00

     total cpu time spent up to now is       86.8 secs

     total energy              =    -448.58686914 Ry
     estimated scf accuracy    <       0.00000001 Ry

     iteration # 32     ecut=   124.00 Ry     beta= 0.70
     Davidson diagonalization with overlap
     ethr =  1.92E-11,  avg # of iterations =  2.7

     negative rho (up, down):  9.673E-04 0.000E+00

     total cpu time spent up to now is       87.7 secs

     total energy              =    -448.58686914 Ry
     estimated scf accuracy    <          2.3E-10 Ry

     iteration # 33     ecut=   124.00 Ry     beta= 0.70
     Davidson diagonalization with overlap
     ethr =  8.18E-13,  avg # of iterations =  5.4

     negative rho (up, down):  9.673E-04 0.000E+00

     total cpu time spent up to now is       88.9 secs

     total energy              =    -448.58686914 Ry
     estimated scf accuracy    <          3.5E-09 Ry

     iteration # 34     ecut=   124.00 Ry     beta= 0.70
     Davidson diagonalization with overlap
     ethr =  8.18E-13,  avg # of iterations =  4.1

     negative rho (up, down):  9.673E-04 0.000E+00

     total cpu time spent up to now is       89.9 secs

     End of self-consistent calculation

          k = 0.0000 0.0000 0.0000 (  3959 PWs)   bands (ev):

   -69.5184 -39.5026 -35.5789 -35.5789 -35.5789 -15.6011 -15.6011 -15.6011
     9.8840  13.6280  13.6280  16.3578  16.3578  16.3578  18.6549  18.6549
    20.5516  20.5516

          k = 0.0000 0.0000 0.0904 (  4011 PWs)   bands (ev):

   -69.5182 -39.5005 -35.5813 -35.5786 -35.5786 -15.6288 -15.5995 -15.5995
    10.0543  13.7097  13.7147  16.3452  16.3452  16.3949  18.5522  18.6934
    20.3068  20.3068

          k = 0.0000 0.0000 0.1809 (  4032 PWs)   bands (ev):

   -69.5175 -39.4950 -35.5878 -35.5776 -35.5776 -15.7025 -15.5950 -15.5950
    10.5491  13.9390  13.9489  16.3163  16.3163  16.4988  18.2551  18.7798
    19.7365  19.7365

          k = 0.0000 0.0000 0.2713 (  4052 PWs)   bands (ev):

   -69.5166 -39.4879 -35.5962 -35.5763 -35.5763 -15.7979 -15.5891 -15.5891
    11.3183  14.1918  14.3252  16.2913  16.2913  16.6464  17.7999  18.8089
    19.1049  19.1049

          k = 0.0000 0.0000 0.3617 (  4056 PWs)   bands (ev):

   -69.5158 -39.4813 -35.6039 -35.5752 -35.5752 -15.8845 -15.5836 -15.5836
    12.2701  14.2891  14.7907  16.2857  16.2857  16.7966  17.2587  18.5878
    18.5878  18.6156

          k = 0.0000 0.0000 0.4522 (  4068 PWs)   bands (ev):

   -69.5153 -39.4774 -35.6085 -35.5745 -35.5745 -15.9355 -15.5804 -15.5804
    13.2356  14.0133  15.2076  16.2936  16.2936  16.7955  16.8945  18.2954
    18.2954  18.3048

          k = 0.0000 0.0904 0.0904 (  4012 PWs)   bands (ev):

   -69.5179 -39.4984 -35.5821 -35.5800 -35.5782 -15.6298 -15.6240 -15.5977
    10.2214  13.7870  13.8025  16.2649  16.3249  16.4885  18.5373  18.6649
    20.0380  20.0619

          k = 0.0000 0.0904 0.1809 (  4037 PWs)   bands (ev):

   -69.5173 -39.4926 -35.5882 -35.5799 -35.5773 -15.7002 -15.6214 -15.5930
    10.7056  13.9988  14.0425  16.1863  16.2754  16.6032  18.3087  18.7403
    19.5057  19.5394

          k = 0.0000 0.0904 0.2713 (  4044 PWs)   bands (ev):

   -69.5164 -39.4851 -35.5968 -35.5792 -35.5760 -15.7946 -15.6148 -15.5869
    11.4550  14.2536  14.3912  16.1434  16.2194  16.6863  17.9211  18.7083
    19.0146  19.0505

          k = 0.0000 0.0904 0.3617 (  4052 PWs)   bands (ev):

   -69.5155 -39.4781 -35.6046 -35.5785 -35.5749 -15.8803 -15.6086 -15.5812
    12.3750  14.3415  14.8205  16.1482  16.1690  16.6928  17.4773  18.3052
    18.7238  18.8594

          k = 0.0000 0.0904 0.4522 (  4056 PWs)   bands (ev):

   -69.5150 -39.4740 -35.6093 -35.5781 -35.5742 -15.9308 -15.6049 -15.5778
    13.2968  14.0620  15.2014  16.1021  16.1833  16.6405  17.1575  18.0161
    18.5921  18.6670

          k = 0.0000 0.1809 0.1809 (  4048 PWs)   bands (ev):

   -69.5166 -39.4860 -35.5908 -35.5847 -35.5763 -15.7010 -15.6848 -15.5878
    11.1552  14.1413  14.3126  16.0162  16.1813  16.6780  18.3591  18.7003
    18.9990  19.2229

          k = 0.0000 0.1809 0.2713 (  4042 PWs)   bands (ev):

   -69.5157 -39.4774 -35.5984 -35.5867 -35.5751 -15.7859 -15.6830 -15.5810
    11.8371  14.3005  14.6802  15.8977  16.0907  16.6041  18.1903  18.4591
    18.8554  19.0478

          k = 0.0000 0.1809 0.3617 (  4065 PWs)   bands (ev):

   -69.5149 -39.4695 -35.6066 -35.5873 -35.5740 -15.8691 -15.6751 -15.5747
    12.6426  14.3266  15.0584  15.8622  16.0597  16.3997  17.8949  18.1248
    18.9743  19.0665

          k = 0.0000 0.1809 0.4522 (  4060 PWs)   bands (ev):

   -69.5144 -39.4648 -35.6114 -35.5876 -35.5734 -15.9182 -15.6703 -15.5710
    13.3956  14.0821  15.3351  15.9111  16.0889  16.1875  17.7277  17.8837
    18.9912  19.1605

          k = 0.0000 0.2713 0.2713 (  4062 PWs)   bands (ev):

   -69.5148 -39.4674 -35.6021 -35.5949 -35.5740 -15.7824 -15.7634 -15.5733
    12.3791  14.2769  15.1183  15.6942  16.0412  16.3429  18.2404  18.4150
    18.7562  19.2167

          k = 0.0000 0.2713 0.3617 (  4069 PWs)   bands (ev):

   -69.5140 -39.4581 -35.6092 -35.5988 -35.5730 -15.8545 -15.7611 -15.5661
    12.9439  14.1543  15.5519  15.5868  16.0261  16.1874  18.0596  18.3935
    18.9199  19.4859

          k = 0.0000 0.2713 0.4522 (  4061 PWs)   bands (ev):

   -69.5135 -39.4526 -35.6143 -35.6001 -35.5723 -15.9017 -15.7550 -15.5619
    13.3756  13.9584  15.5990  15.7697  15.7897  16.5271  17.8176  18.3510
    19.1225  19.7275

          k = 0.0000 0.3617 0.3617 (  4066 PWs)   bands (ev):

   -69.5132 -39.4477 -35.6126 -35.6083 -35.5719 -15.8456 -15.8347 -15.5583
    13.1529  13.9469  15.4043  15.6869  16.1430  16.5716  18.1804  18.7449
    18.7565  19.8812

          k = 0.0000 0.3617 0.4522 (  4057 PWs)   bands (ev):

   -69.5127 -39.4414 -35.6170 -35.6115 -35.5713 -15.8865 -15.8319 -15.5536
    13.2492  13.8055  15.3534  15.4527  16.5021  17.2041  17.9434  18.8011
    18.9628  20.1772

          k = 0.0000 0.4522 0.4522 (  4062 PWs)   bands (ev):

   -69.5122 -39.4348 -35.6188 -35.6182 -35.5708 -15.8782 -15.8766 -15.5486
    13.1477  13.7132  15.2352  15.2684  17.1884  17.6506  18.3132  18.4941
    19.0603  20.4425

          k = 0.0904 0.0904 0.0904 (  4007 PWs)   bands (ev):

   -69.5177 -39.4961 -35.5818 -35.5818 -35.5789 -15.6301 -15.6223 -15.6223
    10.3856  13.8760  13.8760  16.2428  16.2428  16.5635  18.5878  18.5878
    19.6298  20.2865

          k = 0.0904 0.0904 0.1809 (  4036 PWs)   bands (ev):

   -69.5170 -39.4901 -35.5883 -35.5808 -35.5788 -15.6978 -15.6210 -15.6177
    10.8607  14.0898  14.1045  16.1348  16.1843  16.6433  18.3656  18.7034
    19.1661  19.7134

          k = 0.0904 0.0904 0.2713 (  4046 PWs)   bands (ev):

   -69.5161 -39.4822 -35.5971 -35.5795 -35.5784 -15.7913 -15.6133 -15.6117
    11.5929  14.3535  14.4212  16.0769  16.1048  16.6386  18.0299  18.6533
    18.9738  19.0911

          k = 0.0904 0.0904 0.3617 (  4051 PWs)   bands (ev):

   -69.5153 -39.4749 -35.6052 -35.5783 -35.5781 -15.8763 -15.6062 -15.6061
    12.4851  14.4233  14.8211  16.0069  16.1056  16.5555  17.6542  18.3712
    18.5961  19.0652

          k = 0.0904 0.0904 0.4522 (  4063 PWs)   bands (ev):

   -69.5148 -39.4706 -35.6100 -35.5779 -35.5776 -15.9263 -15.6028 -15.6020
    13.3688  14.1297  15.1712  15.8850  16.2166  16.4686  17.3842  18.0885
    18.3252  19.1645

          k = 0.0904 0.1809 0.1809 (  4048 PWs)   bands (ev):

   -69.5163 -39.4833 -35.5904 -35.5853 -35.5789 -15.6979 -15.6830 -15.6137
    11.3058  14.2423  14.3619  15.9799  16.0769  16.6064  18.4267  18.6724
    18.8885  19.4358

          k = 0.0904 0.1809 0.2713 (  4046 PWs)   bands (ev):

   -69.5154 -39.4745 -35.5984 -35.5868 -35.5782 -15.7827 -15.6807 -15.6064
    11.9784  14.4171  14.6983  15.8548  15.9789  16.4292  18.2777  18.5774
    18.8915  19.1043

          k = 0.0904 0.1809 0.3617 (  4061 PWs)   bands (ev):

   -69.5146 -39.4664 -35.6068 -35.5871 -35.5774 -15.8655 -15.6727 -15.5997
    12.7675  14.4507  15.0137  15.7819  15.9693  16.2504  18.0461  18.2367
    18.7530  19.3597

          k = 0.0904 0.1809 0.4522 (  4058 PWs)   bands (ev):

   -69.5141 -39.4615 -35.6119 -35.5873 -35.5769 -15.9143 -15.6679 -15.5957
    13.4978  14.1909  15.2440  15.7142  16.0696  16.1911  17.8749  17.9526
    18.5542  19.7377

          k = 0.0904 0.2713 0.2713 (  4060 PWs)   bands (ev):

   -69.5146 -39.4644 -35.6017 -35.5952 -35.5773 -15.7788 -15.7616 -15.5985
    12.5238  14.3981  15.1277  15.6562  15.9155  16.1352  18.3552  18.5682
    18.7383  19.3466

          k = 0.0904 0.2713 0.3617 (  4064 PWs)   bands (ev):

   -69.5137 -39.4551 -35.6091 -35.5986 -35.5764 -15.8514 -15.7588 -15.5912
    13.0854  14.2771  15.4893  15.5479  15.9121  16.0569  18.1400  18.4816
    18.8072  19.7488

          k = 0.0904 0.2713 0.4522 (  4060 PWs)   bands (ev):

   -69.5133 -39.4496 -35.6144 -35.5997 -35.5758 -15.8986 -15.7528 -15.5868
    13.5032  14.0824  15.5172  15.5637  15.8597  16.4383  17.8537  18.4530
    18.7356  20.2213

          k = 0.0904 0.3617 0.3617 (  4060 PWs)   bands (ev):

   -69.5129 -39.4448 -35.6121 -35.6082 -35.5754 -15.8428 -15.8329 -15.5833
    13.2965  14.0689  15.3742  15.5994  16.1011  16.4029  18.1467  18.6353
    18.8437  20.1853

          k = 0.0904 0.3617 0.4522 (  4063 PWs)   bands (ev):

   -69.5125 -39.4386 -35.6167 -35.6111 -35.5748 -15.8842 -15.8299 -15.5786
    13.3835  13.9314  15.3213  15.4021  16.4277  17.0299  17.9034  18.5974
    18.9342  20.4143

          k = 0.0904 0.4522 0.4522 (  4061 PWs)   bands (ev):

   -69.5120 -39.4320 -35.6183 -35.6178 -35.5742 -15.8762 -15.8748 -15.5738
    13.2825  13.8391  15.2129  15.2417  17.1299  17.5064  18.0732  18.1650
    19.1371  20.6337

          k = 0.1809 0.1809 0.1809 (  4043 PWs)   bands (ev):

   -69.5156 -39.4761 -35.5893 -35.5893 -35.5833 -15.6942 -15.6782 -15.6782
    11.7352  14.5016  14.5016  15.8829  15.8829  16.3488  18.5903  18.5903
    18.9431  19.6728

          k = 0.1809 0.1809 0.2713 (  4050 PWs)   bands (ev):

   -69.5148 -39.4667 -35.5985 -35.5880 -35.5851 -15.7744 -15.6766 -15.6720
    12.3737  14.7072  14.7626  15.7482  15.7525  16.0426  18.4659  18.6599
    19.0761  19.2414

          k = 0.1809 0.1809 0.3617 (  4064 PWs)   bands (ev):

   -69.5140 -39.4580 -35.6076 -35.5867 -35.5862 -15.8559 -15.6664 -15.6662
    13.0968  14.7274  14.9368  15.6145  15.7794  15.9728  18.3353  18.3965
    18.6113  19.7896

          k = 0.1809 0.1809 0.4522 (  4059 PWs)   bands (ev):

   -69.5135 -39.4529 -35.6130 -35.5868 -35.5859 -15.9039 -15.6628 -15.6603
    13.7278  14.3972  15.1234  15.4945  15.8913  16.1448  17.9914  18.2635
    18.3446  20.1543

          k = 0.1809 0.2713 0.2713 (  4056 PWs)   bands (ev):

   -69.5139 -39.4565 -35.6006 -35.5960 -35.5860 -15.7693 -15.7567 -15.6658
    12.9296  14.7285  15.1493  15.5580  15.6338  15.7101  18.4820  18.6615
    18.9813  19.7087

          k = 0.1809 0.2713 0.3617 (  4060 PWs)   bands (ev):

   -69.5131 -39.4471 -35.6088 -35.5982 -35.5855 -15.8433 -15.7526 -15.6579
    13.4789  14.5993  15.2964  15.4443  15.6824  15.7951  18.2501  18.4928
    18.8761  20.0093

          k = 0.1809 0.2713 0.4522 (  4064 PWs)   bands (ev):

   -69.5126 -39.4414 -35.6146 -35.5987 -35.5851 -15.8903 -15.7469 -15.6532
    13.8481  14.3891  15.2745  15.3882  15.7639  16.2282  17.8951  18.3349
    18.7876  20.2247

          k = 0.1809 0.3617 0.3617 (  4048 PWs)   bands (ev):

   -69.5123 -39.4369 -35.6109 -35.6080 -35.5846 -15.8350 -15.8279 -15.6501
    13.7068  14.3875  15.2989  15.4100  15.9718  15.9889  18.1247  18.3518
    19.1342  20.1693

          k = 0.1809 0.3617 0.4522 (  4062 PWs)   bands (ev):

   -69.5118 -39.4309 -35.6160 -35.6100 -35.5840 -15.8778 -15.8245 -15.6455
    13.7651  14.2609  15.2450  15.2905  16.1827  16.6053  17.8441  18.1997
    19.2089  20.4053

          k = 0.1809 0.4522 0.4522 (  4059 PWs)   bands (ev):

   -69.5113 -39.4247 -35.6170 -35.6166 -35.5834 -15.8708 -15.8698 -15.6409
    13.6684  14.1748  15.1596  15.1804  16.8538  16.9530  17.7352  17.9149
    19.3928  20.6905

          k = 0.2713 0.2713 0.2713 (  4058 PWs)   bands (ev):

   -69.5130 -39.4461 -35.5991 -35.5991 -35.5954 -15.7595 -15.7502 -15.7502
    13.4958  15.1671  15.1671  15.2401  15.4380  15.4380  18.4889  18.4889
    19.4412  19.4412

          k = 0.2713 0.2713 0.3617 (  4054 PWs)   bands (ev):

   -69.5122 -39.4365 -35.6086 -35.5977 -35.5972 -15.8328 -15.7446 -15.7442
    14.0000  14.8606  15.1683  15.3381  15.4359  15.6459  18.2366  18.2841
    19.2921  19.9262

          k = 0.2713 0.2713 0.4522 (  4055 PWs)   bands (ev):

   -69.5117 -39.4307 -35.6148 -35.5978 -35.5969 -15.8795 -15.7407 -15.7378
    14.2312  14.6339  15.1586  15.2856  15.6046  16.0687  17.8395  18.1603
    19.2393  20.2582

          k = 0.2713 0.3617 0.3617 (  4051 PWs)   bands (ev):

   -69.5114 -39.4267 -35.6093 -35.6078 -35.5966 -15.8249 -15.8213 -15.7367
    14.3126  14.7269  15.2161  15.3050  15.5245  15.7637  18.0777  18.0791
    19.5891  20.1220

          k = 0.2713 0.3617 0.4522 (  4062 PWs)   bands (ev):

   -69.5109 -39.4209 -35.6151 -35.6086 -35.5961 -15.8695 -15.8175 -15.7321
    14.3107  14.6403  15.1771  15.2271  15.8007  16.1592  17.7448  17.9964
    19.6500  20.4401

          k = 0.2713 0.4522 0.4522 (  4063 PWs)   bands (ev):

   -69.5105 -39.4150 -35.6153 -35.6152 -35.5954 -15.8638 -15.8633 -15.7279
    14.2431  14.6002  15.1110  15.1375  16.3129  16.3417  17.5782  17.8376
    19.8231  20.7268

          k = 0.3617 0.3617 0.3617 (  4053 PWs)   bands (ev):

   -69.5106 -39.4172 -35.6078 -35.6078 -35.6075 -15.8157 -15.8153 -15.8153
    14.7254  15.0265  15.1700  15.1700  15.5249  15.5249  17.9074  17.9074
    20.1276  20.1276

          k = 0.3617 0.3617 0.4522 (  4062 PWs)   bands (ev):

   -69.5102 -39.4116 -35.6143 -35.6075 -35.6069 -15.8619 -15.8117 -15.8100
    14.7237  14.8869  15.1955  15.3251  15.4985  15.8625  17.6530  17.8321
    20.1400  20.5303

          k = 0.3617 0.4522 0.4522 (  4065 PWs)   bands (ev):

   -69.5097 -39.4061 -35.6138 -35.6138 -35.6064 -15.8574 -15.8573 -15.8070
    14.8293  14.9683  15.1112  15.2129  15.7935  15.8457  17.5385  17.7003
    20.3570  20.7554

          k = 0.4522 0.4522 0.4522 (  4059 PWs)   bands (ev):

   -69.5092 -39.4008 -35.6130 -35.6129 -35.6129 -15.8537 -15.8537 -15.8534
    15.0529  15.1906  15.1906  15.4920  15.4920  15.5086  17.5290  17.5290
    20.7717  20.7717

     the Fermi energy is    17.2641 ev

!    total energy              =    -448.58686914 Ry
     estimated scf accuracy    <          4.1E-11 Ry
     smearing contrib. (-TS)   =       0.00006469 Ry
     internal energy E=F+TS    =    -448.58693383 Ry

     The total energy is F=E-TS. E is the sum of the following terms:
     one-electron contribution =    -153.43425338 Ry
     hartree contribution      =      92.32584546 Ry
     xc contribution           =     -52.85975259 Ry
     ewald contribution        =    -258.46527652 Ry
     one-center paw contrib.   =     -76.15349679 Ry

     convergence has been achieved in  34 iterations

     negative rho (up, down):  9.673E-04 0.000E+00

     Forces acting on atoms (cartesian axes, Ry/au):

     atom    1 type  1   force =     0.00000000    0.00000000    0.00000000
     atom    2 type  2   force =     0.00000000    0.00000000    0.00000000

     Total force =     0.000000     Total SCF correction =     0.000000


     Computing stress (Cartesian axis) and pressure


     negative rho (up, down):  9.673E-04 0.000E+00
          total   stress  (Ry/bohr**3)                   (kbar)     P=        0.08
   0.00000051   0.00000000   0.00000000            0.08        0.00        0.00
   0.00000000   0.00000051   0.00000000            0.00        0.08        0.00
   0.00000000   0.00000000   0.00000051            0.00        0.00        0.08


     Writing all to output data dir ./TiFe.save/ :
     XML data file, charge density, pseudopotentials, collected wavefunctions

     init_run     :      1.62s CPU      1.85s WALL (       2 calls)
     electrons    :     76.20s CPU     82.57s WALL (       4 calls)
     update_pot   :      0.19s CPU      0.26s WALL (       2 calls)
     forces       :      0.92s CPU      1.20s WALL (       4 calls)
     stress       :      4.62s CPU      4.98s WALL (       4 calls)

     Called by init_run:
     wfcinit      :      0.48s CPU      0.52s WALL (       2 calls)
     potinit      :      0.46s CPU      0.54s WALL (       2 calls)
     hinit0       :      0.36s CPU      0.41s WALL (       2 calls)

     Called by electrons:
     c_bands      :     44.01s CPU     46.43s WALL (      85 calls)
     sum_band     :     17.63s CPU     19.49s WALL (      85 calls)
     v_of_rho     :      1.82s CPU      2.25s WALL (      88 calls)
     newd         :      8.81s CPU     10.32s WALL (      88 calls)
     PAW_pot      :      4.27s CPU      4.42s WALL (      90 calls)
     mix_rho      :      0.22s CPU      0.26s WALL (      85 calls)

     Called by c_bands:
     init_us_2    :      1.08s CPU      1.15s WALL (   10192 calls)
     cegterg      :     42.26s CPU     44.58s WALL (    4760 calls)

     Called by *egterg:
     cdiaghg      :      4.92s CPU      5.16s WALL (   18792 calls)
     h_psi        :     31.96s CPU     33.80s WALL (   19072 calls)
     s_psi        :      0.89s CPU      0.95s WALL (   19072 calls)
     g_psi        :      0.16s CPU      0.17s WALL (   14200 calls)

     Called by h_psi:
     h_psi:calbec :      1.26s CPU      1.34s WALL (   19072 calls)
     vloc_psi     :     29.59s CPU     31.30s WALL (   19072 calls)
     add_vuspsi   :      0.93s CPU      0.99s WALL (   19072 calls)

     General routines
     calbec       :      1.97s CPU      2.08s WALL (   27752 calls)
     fft          :      1.72s CPU      2.63s WALL (    1239 calls)
     ffts         :      0.31s CPU      0.35s WALL (     173 calls)
     fftw         :     28.76s CPU     30.42s WALL (  545738 calls)
     interpolate  :      0.41s CPU      0.47s WALL (      88 calls)

     Parallel routines

     PWSCF        :     84.18s CPU     91.84s WALL


   This run was terminated on:  21:55:14  25Oct2025            

=------------------------------------------------------------------------------=
   JOB DONE.
=------------------------------------------------------------------------------=
