
     Program PWSCF v.7.4 starts on 25Oct2025 at 21:48:44 

     This program is part of the open-source Quantum ESPRESSO suite
     for quantum simulation of materials; please cite
         "P. Giannozzi et al., J. Phys.:Condens. Matter 21 395502 (2009);
         "P. Giannozzi et al., J. Phys.:Condens. Matter 29 465901 (2017);
         "P. Giannozzi et al., J. Chem. Phys. 152 154105 (2020);
          URL http://www.quantum-espresso.org", 
     in publications or presentations arising from this work. More details at
     http://www.quantum-espresso.org/quote

     Parallel version (MPI & OpenMP), running on       8 processor cores
     Number of MPI processes:                 8
     Threads/MPI process:                     1

     MPI processes distributed on     1 nodes
     289723 MiB available memory on the printing compute node when the environment starts

     Reading input from TiFe_full_10GPa.in

     Current dimensions of program PWSCF are:
     Max number of different atomic species (ntypx) = 10
     Max number of k-points (npk) =  40000
     Max angular momentum in pseudopotentials (lmaxx) =  4
     file Fe.pbe-spn-kjpaw_psl.0.2.1.UPF: wavefunction(s)  3D renormalized

     IMPORTANT: XC functional enforced from input :
     Exchange-correlation= PBE
                           (   1   4   3   4   0   0   0)
     Any further DFT definition will be discarded
     Please, verify this is what you really want

     Message from routine setup:
     using ibrav=0 with symmetry is DISCOURAGED, use correct ibrav instead

     R & G space division:  proc/nbgrp/npool/nimage =       8
     Subspace diagonalization in iterative solution of the eigenvalue problem:
     a serial algorithm will be used


     Parallelization info
     --------------------
     sticks:   dense  smooth     PW     G-vecs:    dense   smooth      PW
     Min         532     151     43                26154     3989     617
     Max         533     152     44                26155     3993     620
     Sum        4257    1209    349               209233    31919    4945

     Using Slab Decomposition



     bravais-lattice index     =            0
     lattice parameter (alat)  =       5.5533  a.u.
     unit-cell volume          =     171.2590 (a.u.)^3
     number of atoms/cell      =            2
     number of atomic types    =            2
     number of electrons       =        28.00
     number of Kohn-Sham states=           18
     kinetic-energy cutoff     =     124.0000  Ry
     charge density cutoff     =    1736.0000  Ry
     scf convergence threshold =      1.0E-08
     mixing beta               =       0.7000
     number of iterations used =            8  plain     mixing
     energy convergence thresh.=      1.0E-04
     force convergence thresh. =      1.0E-03
     press convergence thresh. =      1.0E-01
     Exchange-correlation= PBE
                           (   1   4   3   4   0   0   0)
     nstep                     =           50


     celldm(1)=   5.553300  celldm(2)=   0.000000  celldm(3)=   0.000000
     celldm(4)=   0.000000  celldm(5)=   0.000000  celldm(6)=   0.000000

     crystal axes: (cart. coord. in units of alat)
               a(1) = (   1.000000   0.000000   0.000000 )  
               a(2) = (   0.000000   1.000000   0.000000 )  
               a(3) = (   0.000000   0.000000   1.000000 )  

     reciprocal axes: (cart. coord. in units 2 pi/alat)
               b(1) = (  1.000000  0.000000  0.000000 )  
               b(2) = (  0.000000  1.000000  0.000000 )  
               b(3) = (  0.000000  0.000000  1.000000 )  


     PseudoPot. # 1 for Fe read from file:
     ../../pseudos/Fe.pbe-spn-kjpaw_psl.0.2.1.UPF
     MD5 check sum: e86618425769142926afa95317d90200
     Pseudo is Projector augmented-wave + core cor, Zval = 16.0
     Generated using "atomic" code by A. Dal Corso  v.5.0.99 svn rev. 10869
     Shape of augmentation charge: PSQ
     Using radial grid of 1191 points,  6 beta functions with: 
                l(1) =   0
                l(2) =   0
                l(3) =   1
                l(4) =   1
                l(5) =   2
                l(6) =   2
     Q(r) pseudized with 0 coefficients 


     PseudoPot. # 2 for Ti read from file:
     ../../pseudos/ti_pbe_v1.4.uspp.F.UPF
     MD5 check sum: 88a00a6731bd790ddea75d31a80cb452
     Pseudo is Ultrasoft + core correction, Zval = 12.0
     Generated by new atomic code, or converted to UPF format
     Using radial grid of  851 points,  6 beta functions with: 
                l(1) =   0
                l(2) =   0
                l(3) =   1
                l(4) =   1
                l(5) =   2
                l(6) =   2
     Q(r) pseudized with  6 coefficients,  rinner =    1.000   1.000   1.000
                                                       1.000   1.000

     atomic species   valence    mass     pseudopotential
     Fe               16.00    55.84500     Fe( 1.00)
     Ti               12.00    47.86700     Ti( 1.00)

     48 Sym. Ops., with inversion, found



   Cartesian axes

     site n.     atom                  positions (alat units)
         1        Fe     tau(   1) = (   0.5000000   0.5000000   0.5000000  )
         2        Ti     tau(   2) = (   0.0000000   0.0000000   0.0000000  )

     number of k points=    56  Marzari-Vanderbilt smearing, width (Ry)=  0.0050
                       cart. coord. in units 2pi/alat
        k(    1) = (   0.0000000   0.0000000   0.0000000), wk =   0.0015026
        k(    2) = (   0.0000000   0.0000000   0.0909091), wk =   0.0090158
        k(    3) = (   0.0000000   0.0000000   0.1818182), wk =   0.0090158
        k(    4) = (   0.0000000   0.0000000   0.2727273), wk =   0.0090158
        k(    5) = (   0.0000000   0.0000000   0.3636364), wk =   0.0090158
        k(    6) = (   0.0000000   0.0000000   0.4545455), wk =   0.0090158
        k(    7) = (   0.0000000   0.0909091   0.0909091), wk =   0.0180316
        k(    8) = (   0.0000000   0.0909091   0.1818182), wk =   0.0360631
        k(    9) = (   0.0000000   0.0909091   0.2727273), wk =   0.0360631
        k(   10) = (   0.0000000   0.0909091   0.3636364), wk =   0.0360631
        k(   11) = (   0.0000000   0.0909091   0.4545455), wk =   0.0360631
        k(   12) = (   0.0000000   0.1818182   0.1818182), wk =   0.0180316
        k(   13) = (   0.0000000   0.1818182   0.2727273), wk =   0.0360631
        k(   14) = (   0.0000000   0.1818182   0.3636364), wk =   0.0360631
        k(   15) = (   0.0000000   0.1818182   0.4545455), wk =   0.0360631
        k(   16) = (   0.0000000   0.2727273   0.2727273), wk =   0.0180316
        k(   17) = (   0.0000000   0.2727273   0.3636364), wk =   0.0360631
        k(   18) = (   0.0000000   0.2727273   0.4545455), wk =   0.0360631
        k(   19) = (   0.0000000   0.3636364   0.3636364), wk =   0.0180316
        k(   20) = (   0.0000000   0.3636364   0.4545455), wk =   0.0360631
        k(   21) = (   0.0000000   0.4545455   0.4545455), wk =   0.0180316
        k(   22) = (   0.0909091   0.0909091   0.0909091), wk =   0.0120210
        k(   23) = (   0.0909091   0.0909091   0.1818182), wk =   0.0360631
        k(   24) = (   0.0909091   0.0909091   0.2727273), wk =   0.0360631
        k(   25) = (   0.0909091   0.0909091   0.3636364), wk =   0.0360631
        k(   26) = (   0.0909091   0.0909091   0.4545455), wk =   0.0360631
        k(   27) = (   0.0909091   0.1818182   0.1818182), wk =   0.0360631
        k(   28) = (   0.0909091   0.1818182   0.2727273), wk =   0.0721262
        k(   29) = (   0.0909091   0.1818182   0.3636364), wk =   0.0721262
        k(   30) = (   0.0909091   0.1818182   0.4545455), wk =   0.0721262
        k(   31) = (   0.0909091   0.2727273   0.2727273), wk =   0.0360631
        k(   32) = (   0.0909091   0.2727273   0.3636364), wk =   0.0721262
        k(   33) = (   0.0909091   0.2727273   0.4545455), wk =   0.0721262
        k(   34) = (   0.0909091   0.3636364   0.3636364), wk =   0.0360631
        k(   35) = (   0.0909091   0.3636364   0.4545455), wk =   0.0721262
        k(   36) = (   0.0909091   0.4545455   0.4545455), wk =   0.0360631
        k(   37) = (   0.1818182   0.1818182   0.1818182), wk =   0.0120210
        k(   38) = (   0.1818182   0.1818182   0.2727273), wk =   0.0360631
        k(   39) = (   0.1818182   0.1818182   0.3636364), wk =   0.0360631
        k(   40) = (   0.1818182   0.1818182   0.4545455), wk =   0.0360631
        k(   41) = (   0.1818182   0.2727273   0.2727273), wk =   0.0360631
        k(   42) = (   0.1818182   0.2727273   0.3636364), wk =   0.0721262
        k(   43) = (   0.1818182   0.2727273   0.4545455), wk =   0.0721262
        k(   44) = (   0.1818182   0.3636364   0.3636364), wk =   0.0360631
        k(   45) = (   0.1818182   0.3636364   0.4545455), wk =   0.0721262
        k(   46) = (   0.1818182   0.4545455   0.4545455), wk =   0.0360631
        k(   47) = (   0.2727273   0.2727273   0.2727273), wk =   0.0120210
        k(   48) = (   0.2727273   0.2727273   0.3636364), wk =   0.0360631
        k(   49) = (   0.2727273   0.2727273   0.4545455), wk =   0.0360631
        k(   50) = (   0.2727273   0.3636364   0.3636364), wk =   0.0360631
        k(   51) = (   0.2727273   0.3636364   0.4545455), wk =   0.0721262
        k(   52) = (   0.2727273   0.4545455   0.4545455), wk =   0.0360631
        k(   53) = (   0.3636364   0.3636364   0.3636364), wk =   0.0120210
        k(   54) = (   0.3636364   0.3636364   0.4545455), wk =   0.0360631
        k(   55) = (   0.3636364   0.4545455   0.4545455), wk =   0.0360631
        k(   56) = (   0.4545455   0.4545455   0.4545455), wk =   0.0120210

     Dense  grid:   209233 G-vectors     FFT dimensions: (  75,  75,  75)

     Smooth grid:    31919 G-vectors     FFT dimensions: (  40,  40,  40)

     Estimated max dynamical RAM per process >     117.03 MB

     Estimated total dynamical RAM >     936.25 MB

     Check: negative core charge=   -0.000002

     Initial potential from superposition of free atoms

     starting charge      26.9995, renormalised to      28.0000

     negative rho (up, down):  1.347E-03 0.000E+00
     Starting wfcs are   23 randomized atomic wfcs
     Checking if some PAW data can be deallocated... 

     total cpu time spent up to now is        1.8 secs

     per-process dynamical memory:   218.7 Mb

     Self-consistent Calculation

     iteration #  1     ecut=   124.00 Ry     beta= 0.70
     Davidson diagonalization with overlap
     ethr =  1.00E-02,  avg # of iterations =  2.1

     negative rho (up, down):  7.937E-05 0.000E+00

     total cpu time spent up to now is        2.8 secs

     total energy              =    -434.89047275 Ry
     estimated scf accuracy    <      17.46535633 Ry

     iteration #  2     ecut=   124.00 Ry     beta= 0.70
     Davidson diagonalization with overlap
     ethr =  1.00E-02,  avg # of iterations =  6.0

     negative rho (up, down):  2.353E-05 0.000E+00

     total cpu time spent up to now is        4.2 secs

     total energy              =    -448.51249463 Ry
     estimated scf accuracy    <      66.10195194 Ry

     iteration #  3     ecut=   124.00 Ry     beta= 0.70
     Davidson diagonalization with overlap
     ethr =  1.00E-02,  avg # of iterations =  3.1

     negative rho (up, down):  2.377E-04 0.000E+00

     total cpu time spent up to now is        5.3 secs

     total energy              =    -448.59203340 Ry
     estimated scf accuracy    <      16.77106202 Ry

     iteration #  4     ecut=   124.00 Ry     beta= 0.70
     Davidson diagonalization with overlap
     ethr =  1.00E-02,  avg # of iterations =  2.2

     negative rho (up, down):  2.766E-04 0.000E+00

     total cpu time spent up to now is        6.2 secs

     total energy              =    -449.11252552 Ry
     estimated scf accuracy    <       4.68111793 Ry

     iteration #  5     ecut=   124.00 Ry     beta= 0.70
     Davidson diagonalization with overlap
     ethr =  1.00E-02,  avg # of iterations =  1.0

     negative rho (up, down):  3.285E-04 0.000E+00

     total cpu time spent up to now is        7.0 secs

     total energy              =    -449.11683000 Ry
     estimated scf accuracy    <       4.27451567 Ry

     iteration #  6     ecut=   124.00 Ry     beta= 0.70
     Davidson diagonalization with overlap
     ethr =  1.00E-02,  avg # of iterations =  1.0

     negative rho (up, down):  1.118E-03 0.000E+00

     total cpu time spent up to now is        7.8 secs

     total energy              =    -447.89068457 Ry
     estimated scf accuracy    <       4.50163493 Ry

     iteration #  7     ecut=   124.00 Ry     beta= 0.70
     Davidson diagonalization with overlap
     ethr =  1.00E-02,  avg # of iterations =  3.4

     negative rho (up, down):  1.015E-03 0.000E+00

     total cpu time spent up to now is        8.7 secs

     total energy              =    -448.58840447 Ry
     estimated scf accuracy    <       3.89651472 Ry

     iteration #  8     ecut=   124.00 Ry     beta= 0.70
     Davidson diagonalization with overlap
     ethr =  1.00E-02,  avg # of iterations =  1.0

     negative rho (up, down):  7.976E-04 0.000E+00

     total cpu time spent up to now is        9.5 secs

     total energy              =    -448.43997417 Ry
     estimated scf accuracy    <       1.27715295 Ry

     iteration #  9     ecut=   124.00 Ry     beta= 0.70
     Davidson diagonalization with overlap
     ethr =  4.56E-03,  avg # of iterations =  1.9

     negative rho (up, down):  7.977E-04 0.000E+00

     total cpu time spent up to now is       10.3 secs

     total energy              =    -448.60539805 Ry
     estimated scf accuracy    <       0.26863249 Ry

     iteration # 10     ecut=   124.00 Ry     beta= 0.70
     Davidson diagonalization with overlap
     ethr =  9.59E-04,  avg # of iterations =  1.3

     negative rho (up, down):  8.075E-04 0.000E+00

     total cpu time spent up to now is       11.1 secs

     total energy              =    -448.61289738 Ry
     estimated scf accuracy    <       0.28159432 Ry

     iteration # 11     ecut=   124.00 Ry     beta= 0.70
     Davidson diagonalization with overlap
     ethr =  9.59E-04,  avg # of iterations =  1.0

     negative rho (up, down):  7.617E-04 0.000E+00

     total cpu time spent up to now is       11.9 secs

     total energy              =    -448.67957078 Ry
     estimated scf accuracy    <       0.34549008 Ry

     iteration # 12     ecut=   124.00 Ry     beta= 0.70
     Davidson diagonalization with overlap
     ethr =  9.59E-04,  avg # of iterations =  1.8

     negative rho (up, down):  7.932E-04 0.000E+00

     total cpu time spent up to now is       12.7 secs

     total energy              =    -448.62277485 Ry
     estimated scf accuracy    <       1.28404054 Ry

     iteration # 13     ecut=   124.00 Ry     beta= 0.70
     Davidson diagonalization with overlap
     ethr =  9.59E-04,  avg # of iterations =  1.2

     negative rho (up, down):  9.274E-04 0.000E+00

     total cpu time spent up to now is       13.5 secs

     total energy              =    -448.63537755 Ry
     estimated scf accuracy    <       0.58154385 Ry

     iteration # 14     ecut=   124.00 Ry     beta= 0.70
     Davidson diagonalization with overlap
     ethr =  9.59E-04,  avg # of iterations =  1.0

     negative rho (up, down):  1.025E-03 0.000E+00

     total cpu time spent up to now is       14.3 secs

     total energy              =    -448.61055071 Ry
     estimated scf accuracy    <       0.50368914 Ry

     iteration # 15     ecut=   124.00 Ry     beta= 0.70
     Davidson diagonalization with overlap
     ethr =  9.59E-04,  avg # of iterations =  1.0

     negative rho (up, down):  1.032E-03 0.000E+00

     total cpu time spent up to now is       15.1 secs

     total energy              =    -448.61143942 Ry
     estimated scf accuracy    <       0.31963621 Ry

     iteration # 16     ecut=   124.00 Ry     beta= 0.70
     Davidson diagonalization with overlap
     ethr =  9.59E-04,  avg # of iterations =  1.0

     negative rho (up, down):  1.077E-03 0.000E+00

     total cpu time spent up to now is       15.9 secs

     total energy              =    -448.59313187 Ry
     estimated scf accuracy    <       0.28283031 Ry

     iteration # 17     ecut=   124.00 Ry     beta= 0.70
     Davidson diagonalization with overlap
     ethr =  9.59E-04,  avg # of iterations =  1.0

     negative rho (up, down):  1.074E-03 0.000E+00

     total cpu time spent up to now is       16.7 secs

     total energy              =    -448.60188466 Ry
     estimated scf accuracy    <       0.07727334 Ry

     iteration # 18     ecut=   124.00 Ry     beta= 0.70
     Davidson diagonalization with overlap
     ethr =  2.76E-04,  avg # of iterations =  1.6

     negative rho (up, down):  9.925E-04 0.000E+00

     total cpu time spent up to now is       17.5 secs

     total energy              =    -448.58361172 Ry
     estimated scf accuracy    <       0.14906512 Ry

     iteration # 19     ecut=   124.00 Ry     beta= 0.70
     Davidson diagonalization with overlap
     ethr =  2.76E-04,  avg # of iterations =  1.1

     negative rho (up, down):  9.436E-04 0.000E+00

     total cpu time spent up to now is       18.3 secs

     total energy              =    -448.59412596 Ry
     estimated scf accuracy    <       0.04848611 Ry

     iteration # 20     ecut=   124.00 Ry     beta= 0.70
     Davidson diagonalization with overlap
     ethr =  1.73E-04,  avg # of iterations =  1.1

     negative rho (up, down):  1.023E-03 0.000E+00

     total cpu time spent up to now is       19.0 secs

     total energy              =    -448.57755581 Ry
     estimated scf accuracy    <       0.17402925 Ry

     iteration # 21     ecut=   124.00 Ry     beta= 0.70
     Davidson diagonalization with overlap
     ethr =  1.73E-04,  avg # of iterations =  2.1

     negative rho (up, down):  1.012E-03 0.000E+00

     total cpu time spent up to now is       19.9 secs

     total energy              =    -448.58650556 Ry
     estimated scf accuracy    <       0.00384583 Ry

     iteration # 22     ecut=   124.00 Ry     beta= 0.70
     Davidson diagonalization with overlap
     ethr =  1.37E-05,  avg # of iterations =  4.6

     negative rho (up, down):  1.004E-03 0.000E+00

     total cpu time spent up to now is       20.8 secs

     total energy              =    -448.58691254 Ry
     estimated scf accuracy    <       0.00198474 Ry

     iteration # 23     ecut=   124.00 Ry     beta= 0.70
     Davidson diagonalization with overlap
     ethr =  7.09E-06,  avg # of iterations =  1.5

     negative rho (up, down):  1.006E-03 0.000E+00

     total cpu time spent up to now is       21.6 secs

     total energy              =    -448.58700272 Ry
     estimated scf accuracy    <       0.00176934 Ry

     iteration # 24     ecut=   124.00 Ry     beta= 0.70
     Davidson diagonalization with overlap
     ethr =  6.32E-06,  avg # of iterations =  1.0

     negative rho (up, down):  9.532E-04 0.000E+00

     total cpu time spent up to now is       22.4 secs

     total energy              =    -448.58622430 Ry
     estimated scf accuracy    <       0.00189335 Ry

     iteration # 25     ecut=   124.00 Ry     beta= 0.70
     Davidson diagonalization with overlap
     ethr =  6.32E-06,  avg # of iterations =  2.5

     negative rho (up, down):  9.519E-04 0.000E+00

     total cpu time spent up to now is       23.3 secs

     total energy              =    -448.58664002 Ry
     estimated scf accuracy    <       0.00120790 Ry

     iteration # 26     ecut=   124.00 Ry     beta= 0.70
     Davidson diagonalization with overlap
     ethr =  4.31E-06,  avg # of iterations =  1.0

     negative rho (up, down):  9.350E-04 0.000E+00

     total cpu time spent up to now is       24.1 secs

     total energy              =    -448.58685540 Ry
     estimated scf accuracy    <       0.00115499 Ry

     iteration # 27     ecut=   124.00 Ry     beta= 0.70
     Davidson diagonalization with overlap
     ethr =  4.12E-06,  avg # of iterations =  2.0

     negative rho (up, down):  9.665E-04 0.000E+00

     total cpu time spent up to now is       24.9 secs

     total energy              =    -448.58628948 Ry
     estimated scf accuracy    <       0.00358739 Ry

     iteration # 28     ecut=   124.00 Ry     beta= 0.70
     Davidson diagonalization with overlap
     ethr =  4.12E-06,  avg # of iterations =  2.0

     negative rho (up, down):  9.722E-04 0.000E+00

     total cpu time spent up to now is       25.8 secs

     total energy              =    -448.58652077 Ry
     estimated scf accuracy    <       0.00004732 Ry

     iteration # 29     ecut=   124.00 Ry     beta= 0.70
     Davidson diagonalization with overlap
     ethr =  1.69E-07,  avg # of iterations =  4.7

     negative rho (up, down):  9.640E-04 0.000E+00

     total cpu time spent up to now is       26.8 secs

     total energy              =    -448.58653251 Ry
     estimated scf accuracy    <       0.00024121 Ry

     iteration # 30     ecut=   124.00 Ry     beta= 0.70
     Davidson diagonalization with overlap
     ethr =  1.69E-07,  avg # of iterations =  3.7

     negative rho (up, down):  9.643E-04 0.000E+00

     total cpu time spent up to now is       27.8 secs

     total energy              =    -448.58655214 Ry
     estimated scf accuracy    <       0.00000020 Ry

     iteration # 31     ecut=   124.00 Ry     beta= 0.70
     Davidson diagonalization with overlap
     ethr =  7.22E-10,  avg # of iterations =  5.8

     negative rho (up, down):  9.639E-04 0.000E+00

     total cpu time spent up to now is       29.0 secs

     total energy              =    -448.58655245 Ry
     estimated scf accuracy    <       0.00000110 Ry

     iteration # 32     ecut=   124.00 Ry     beta= 0.70
     Davidson diagonalization with overlap
     ethr =  7.22E-10,  avg # of iterations =  3.7

     negative rho (up, down):  9.638E-04 0.000E+00

     total cpu time spent up to now is       29.9 secs

     total energy              =    -448.58655251 Ry
     estimated scf accuracy    <       0.00000016 Ry

     iteration # 33     ecut=   124.00 Ry     beta= 0.70
     Davidson diagonalization with overlap
     ethr =  5.58E-10,  avg # of iterations =  2.1

     negative rho (up, down):  9.641E-04 0.000E+00

     total cpu time spent up to now is       30.7 secs

     total energy              =    -448.58655247 Ry
     estimated scf accuracy    <       0.00000034 Ry

     iteration # 34     ecut=   124.00 Ry     beta= 0.70
     Davidson diagonalization with overlap
     ethr =  5.58E-10,  avg # of iterations =  2.0

     negative rho (up, down):  9.642E-04 0.000E+00

     total cpu time spent up to now is       31.5 secs

     total energy              =    -448.58655249 Ry
     estimated scf accuracy    <       0.00000001 Ry

     iteration # 35     ecut=   124.00 Ry     beta= 0.70
     Davidson diagonalization with overlap
     ethr =  5.03E-11,  avg # of iterations =  4.2

     negative rho (up, down):  9.641E-04 0.000E+00

     total cpu time spent up to now is       32.5 secs

     total energy              =    -448.58655249 Ry
     estimated scf accuracy    <       0.00000003 Ry

     iteration # 36     ecut=   124.00 Ry     beta= 0.70
     Davidson diagonalization with overlap
     ethr =  5.03E-11,  avg # of iterations =  3.8

     negative rho (up, down):  9.641E-04 0.000E+00

     total cpu time spent up to now is       33.4 secs

     total energy              =    -448.58655249 Ry
     estimated scf accuracy    <       0.00000001 Ry

     iteration # 37     ecut=   124.00 Ry     beta= 0.70
     Davidson diagonalization with overlap
     ethr =  3.67E-11,  avg # of iterations =  1.1

     negative rho (up, down):  9.642E-04 0.000E+00

     total cpu time spent up to now is       34.2 secs

     End of self-consistent calculation

          k = 0.0000 0.0000 0.0000 (  3911 PWs)   bands (ev):

   -69.2103 -39.1519 -35.2713 -35.2713 -35.2713 -15.2461 -15.2461 -15.2461
    10.1528  13.8638  13.8638  16.6568  16.6568  16.6568  18.9982  18.9982
    20.9365  20.9365

          k = 0.0000 0.0000 0.0909 (  3947 PWs)   bands (ev):

   -69.2100 -39.1497 -35.2739 -35.2710 -35.2710 -15.2754 -15.2443 -15.2443
    10.3257  13.9470  13.9536  16.6441  16.6441  16.6947  18.8926  19.0379
    20.6857  20.6857

          k = 0.0000 0.0000 0.1818 (  3964 PWs)   bands (ev):

   -69.2093 -39.1440 -35.2806 -35.2699 -35.2699 -15.3533 -15.2397 -15.2397
    10.8272  14.1866  14.1905  16.6148  16.6148  16.8008  18.5874  19.1278
    20.1021  20.1021

          k = 0.0000 0.0000 0.2727 (  3988 PWs)   bands (ev):

   -69.2083 -39.1366 -35.2894 -35.2686 -35.2686 -15.4541 -15.2335 -15.2335
    11.6057  14.4523  14.5738  16.5899  16.5899  16.9516  18.1202  19.1616
    19.4563  19.4563

          k = 0.0000 0.0000 0.3636 (  4008 PWs)   bands (ev):

   -69.2074 -39.1297 -35.2974 -35.2673 -35.2673 -15.5456 -15.2278 -15.2278
    12.5660  14.5651  15.0485  16.5850  16.5850  17.1052  17.5652  18.9274
    18.9274  18.9715

          k = 0.0000 0.0000 0.4545 (  3992 PWs)   bands (ev):

   -69.2069 -39.1256 -35.3021 -35.2666 -35.2666 -15.5994 -15.2245 -15.2245
    13.5347  14.3044  15.4744  16.5939  16.5939  17.0902  17.2053  18.6282
    18.6282  18.6588

          k = 0.0000 0.0909 0.0909 (  3966 PWs)   bands (ev):

   -69.2097 -39.1475 -35.2748 -35.2724 -35.2706 -15.2765 -15.2702 -15.2425
    10.4951  14.0265  14.0436  16.5616  16.6235  16.7909  18.8774  19.0086
    20.4103  20.4352

          k = 0.0000 0.0909 0.1818 (  3978 PWs)   bands (ev):

   -69.2090 -39.1414 -35.2811 -35.2723 -35.2696 -15.3509 -15.2676 -15.2376
    10.9856  14.2440  14.2906  16.4813  16.5732  16.9084  18.6426  19.0871
    19.8666  19.9000

          k = 0.0000 0.0909 0.2727 (  3995 PWs)   bands (ev):

   -69.2080 -39.1335 -35.2900 -35.2716 -35.2682 -15.4506 -15.2606 -15.2312
    11.7434  14.5128  14.6445  16.4377  16.5167  16.9935  18.2447  19.0577
    19.3653  19.4001

          k = 0.0000 0.0909 0.3636 (  3991 PWs)   bands (ev):

   -69.2071 -39.1262 -35.2982 -35.2708 -35.2670 -15.5411 -15.2541 -15.2253
    12.6707  14.6170  15.0808  16.4435  16.4656  16.9997  17.7899  18.6459
    19.0664  19.2132

          k = 0.0000 0.0909 0.4545 (  3999 PWs)   bands (ev):

   -69.2066 -39.1219 -35.3030 -35.2704 -35.2663 -15.5944 -15.2503 -15.2217
    13.5943  14.3519  15.4692  16.3968  16.4805  16.9451  17.4633  18.3527
    18.9323  19.0197

          k = 0.0000 0.1818 0.1818 (  3972 PWs)   bands (ev):

   -69.2082 -39.1345 -35.2840 -35.2772 -35.2686 -15.3519 -15.3343 -15.2321
    11.4401  14.3900  14.5687  16.3070  16.4778  16.9857  18.6948  19.0458
    19.3496  19.5758

          k = 0.0000 0.1818 0.2727 (  4003 PWs)   bands (ev):

   -69.2073 -39.1253 -35.2920 -35.2794 -35.2673 -15.4413 -15.3326 -15.2250
    12.1275  14.5565  14.9462  16.1858  16.3868  16.9101  18.5208  18.8014
    19.2048  19.3971

          k = 0.0000 0.1818 0.3636 (  3997 PWs)   bands (ev):

   -69.2064 -39.1169 -35.3004 -35.2802 -35.2661 -15.5291 -15.3242 -15.2184
    12.9354  14.5943  15.3322  16.1499  16.3572  16.7002  18.2182  18.4617
    19.3302  19.4170

          k = 0.0000 0.1818 0.4545 (  3990 PWs)   bands (ev):

   -69.2059 -39.1119 -35.3055 -35.2806 -35.2654 -15.5809 -15.3192 -15.2144
    13.6841  14.3630  15.6125  16.2009  16.3901  16.4819  18.0480  18.2166
    19.3519  19.5140

          k = 0.0000 0.2727 0.2727 (  4000 PWs)   bands (ev):

   -69.2063 -39.1146 -35.2961 -35.2880 -35.2661 -15.4378 -15.4172 -15.2168
    12.6688  14.5348  15.3963  15.9775  16.3399  16.6425  18.5788  18.7502
    19.1052  19.5703

          k = 0.0000 0.2727 0.3636 (  3993 PWs)   bands (ev):

   -69.2054 -39.1047 -35.3035 -35.2923 -35.2649 -15.5135 -15.4149 -15.2093
    13.2265  14.4165  15.8407  15.8678  16.3180  16.4951  18.3958  18.7291
    19.2748  19.8464

          k = 0.0000 0.2727 0.4545 (  3996 PWs)   bands (ev):

   -69.2049 -39.0988 -35.3088 -35.2939 -35.2643 -15.5633 -15.4084 -15.2048
    13.6460  14.2282  15.8808  16.0550  16.0845  16.8466  18.1510  18.6844
    19.4869  20.0941

          k = 0.0000 0.3636 0.3636 (  4002 PWs)   bands (ev):

   -69.2046 -39.0934 -35.3073 -35.3025 -35.2639 -15.5042 -15.4923 -15.2009
    13.4198  14.2078  15.6811  15.9708  16.4456  16.8939  18.5222  19.0880
    19.1103  20.2512

          k = 0.0000 0.3636 0.4545 (  3999 PWs)   bands (ev):

   -69.2040 -39.0867 -35.3119 -35.3061 -35.2632 -15.5470 -15.4894 -15.1960
    13.5038  14.0682  15.6293  15.7309  16.8140  17.5390  18.2827  19.1482
    19.3229  20.5544

          k = 0.0000 0.4545 0.4545 (  3998 PWs)   bands (ev):

   -69.2035 -39.0794 -35.3139 -35.3132 -35.2626 -15.5381 -15.5364 -15.1907
    13.3945  13.9723  15.5084  15.5425  17.5106  17.9878  18.6669  18.8520
    19.4119  20.8261

          k = 0.0909 0.0909 0.0909 (  3959 PWs)   bands (ev):

   -69.2094 -39.1451 -35.2744 -35.2744 -35.2711 -15.2769 -15.2684 -15.2684
    10.6615  14.1185  14.1185  16.5391  16.5391  16.8681  18.9294  18.9294
    19.9928  20.6651

          k = 0.0909 0.0909 0.1818 (  3966 PWs)   bands (ev):

   -69.2087 -39.1388 -35.2813 -35.2733 -35.2710 -15.3483 -15.2672 -15.2636
    11.1426  14.3361  14.3554  16.4286  16.4796  16.9503  18.7011  19.0492
    19.5188  20.0788

          k = 0.0909 0.0909 0.2727 (  3992 PWs)   bands (ev):

   -69.2077 -39.1304 -35.2905 -35.2719 -35.2707 -15.4471 -15.2591 -15.2574
    11.8826  14.6168  14.6736  16.3700  16.3987  16.9454  18.3564  19.0005
    19.3236  19.4428

          k = 0.0909 0.0909 0.3636 (  3994 PWs)   bands (ev):

   -69.2068 -39.1228 -35.2988 -35.2707 -35.2704 -15.5368 -15.2516 -15.2516
    12.7810  14.7008  15.0813  16.2989  16.4005  16.8595  17.9712  18.7163
    18.9368  19.4202

          k = 0.0909 0.0909 0.4545 (  4007 PWs)   bands (ev):

   -69.2063 -39.1183 -35.3038 -35.2702 -35.2699 -15.5896 -15.2481 -15.2471
    13.6656  14.4197  15.4383  16.1745  16.5156  16.7699  17.6949  18.4315
    18.6597  19.5237

          k = 0.0909 0.1818 0.1818 (  3984 PWs)   bands (ev):

   -69.2080 -39.1316 -35.2836 -35.2780 -35.2712 -15.3487 -15.3325 -15.2595
    11.5926  14.4938  14.6188  16.2700  16.3702  16.9131  18.7644  19.0172
    19.2358  19.7948

          k = 0.0909 0.1818 0.2727 (  3994 PWs)   bands (ev):

   -69.2070 -39.1222 -35.2919 -35.2795 -35.2705 -15.4380 -15.3301 -15.2518
    12.2705  14.6756  14.9647  16.1421  16.2715  16.7315  18.6109  18.9228
    19.2407  19.4559

          k = 0.0909 0.1818 0.3636 (  4001 PWs)   bands (ev):

   -69.2061 -39.1136 -35.3007 -35.2800 -35.2697 -15.5253 -15.3217 -15.2447
    13.0616  14.7215  15.2859  16.0686  16.2634  16.5479  18.3724  18.5771
    19.1012  19.7199

          k = 0.0909 0.1818 0.4545 (  3993 PWs)   bands (ev):

   -69.2056 -39.1084 -35.3060 -35.2802 -35.2692 -15.5768 -15.3167 -15.2405
    13.7875  14.4740  15.5175  16.0018  16.3647  16.4909  18.1991  18.2872
    18.8991  20.1084

          k = 0.0909 0.2727 0.2727 (  3989 PWs)   bands (ev):

   -69.2061 -39.1114 -35.2957 -35.2883 -35.2695 -15.4340 -15.4153 -15.2435
    12.8158  14.6587  15.4058  15.9390  16.2101  16.4306  18.6963  18.9063
    19.0873  19.7047

          k = 0.0909 0.2727 0.3636 (  3985 PWs)   bands (ev):

   -69.2052 -39.1015 -35.3033 -35.2922 -35.2686 -15.5103 -15.4125 -15.2357
    13.3703  14.5419  15.7742  15.8302  16.2030  16.3600  18.4780  18.8193
    19.1582  20.1172

          k = 0.0909 0.2727 0.4545 (  4006 PWs)   bands (ev):

   -69.2046 -39.0955 -35.3089 -35.2935 -35.2680 -15.5600 -15.4061 -15.2311
    13.7756  14.3545  15.7972  15.8477  16.1550  16.7541  18.1884  18.7887
    19.0873  20.6002

          k = 0.0909 0.3636 0.3636 (  3992 PWs)   bands (ev):

   -69.2043 -39.0903 -35.3068 -35.3024 -35.2675 -15.5011 -15.4904 -15.2274
    13.5656  14.3325  15.6506  15.8817  16.4032  16.7209  18.4860  18.9868
    19.1887  20.5636

          k = 0.0909 0.3636 0.4545 (  4002 PWs)   bands (ev):

   -69.2038 -39.0836 -35.3116 -35.3057 -35.2669 -15.5446 -15.4873 -15.2224
    13.6401  14.1966  15.5970  15.6797  16.7391  17.3611  18.2404  18.9494
    19.2815  20.7958

          k = 0.0909 0.4545 0.4545 (  3993 PWs)   bands (ev):

   -69.2033 -39.0765 -35.3134 -35.3128 -35.2662 -15.5360 -15.5345 -15.2173
    13.5314  14.1009  15.4860  15.5157  17.4523  17.8446  18.4160  18.5135
    19.4899  21.0193

          k = 0.1818 0.1818 0.1818 (  3989 PWs)   bands (ev):

   -69.2072 -39.1239 -35.2825 -35.2825 -35.2757 -15.3447 -15.3275 -15.3275
    12.0266  14.7610  14.7610  16.1712  16.1712  16.6504  18.9328  18.9328
    19.2929  20.0374

          k = 0.1818 0.1818 0.2727 (  3992 PWs)   bands (ev):

   -69.2063 -39.1139 -35.2921 -35.2810 -35.2777 -15.4292 -15.3259 -15.3210
    12.6697  14.9702  15.0333  16.0341  16.0388  16.3368  18.8049  19.0078
    19.4273  19.5988

          k = 0.1818 0.1818 0.3636 (  3994 PWs)   bands (ev):

   -69.2054 -39.1046 -35.3016 -35.2796 -35.2790 -15.5151 -15.3151 -15.3150
    13.3929  15.0074  15.2036  15.8991  16.0682  16.2649  18.6704  18.7433
    18.9523  20.1600

          k = 0.1818 0.1818 0.4545 (  3986 PWs)   bands (ev):

   -69.2049 -39.0991 -35.3073 -35.2797 -35.2788 -15.5658 -15.3114 -15.3085
    14.0172  14.6821  15.3921  15.7788  16.1845  16.4450  18.3322  18.5953
    18.6806  20.5298

          k = 0.1818 0.2727 0.2727 (  3994 PWs)   bands (ev):

   -69.2053 -39.1029 -35.2944 -35.2893 -35.2787 -15.4238 -15.4102 -15.3144
    13.2274  14.9964  15.4273  15.8397  15.9189  15.9976  18.8252  19.0096
    19.3284  20.0777

          k = 0.1818 0.2727 0.3636 (  3988 PWs)   bands (ev):

   -69.2045 -39.0928 -35.3031 -35.2918 -35.2783 -15.5017 -15.4060 -15.3061
    13.7701  14.8706  15.5749  15.7253  15.9737  16.0870  18.5905  18.8382
    19.2207  20.3803

          k = 0.1818 0.2727 0.4545 (  3991 PWs)   bands (ev):

   -69.2039 -39.0868 -35.3091 -35.2925 -35.2779 -15.5513 -15.4000 -15.3011
    14.1253  14.6660  15.5488  15.6706  16.0602  16.5356  18.2319  18.6757
    19.1297  20.6014

          k = 0.1818 0.3636 0.3636 (  3990 PWs)   bands (ev):

   -69.2036 -39.0819 -35.3055 -35.3022 -35.2773 -15.4929 -15.4852 -15.2979
    13.9820  14.6576  15.5747  15.6896  16.2719  16.2956  18.4622  18.6969
    19.4850  20.5435

          k = 0.1818 0.3636 0.4545 (  3993 PWs)   bands (ev):

   -69.2031 -39.0754 -35.3108 -35.3045 -35.2767 -15.5379 -15.4817 -15.2930
    14.0272  14.5323  15.5200  15.5675  16.4915  16.9250  18.1794  18.5402
    19.5616  20.7853

          k = 0.1818 0.4545 0.4545 (  4002 PWs)   bands (ev):

   -69.2026 -39.0686 -35.3120 -35.3116 -35.2760 -15.5305 -15.5294 -15.2882
    13.9234  14.4434  15.4329  15.4545  17.1746  17.2811  18.0690  18.2503
    19.7506  21.0765

          k = 0.2727 0.2727 0.2727 (  3998 PWs)   bands (ev):

   -69.2044 -39.0917 -35.2928 -35.2928 -35.2886 -15.4134 -15.4035 -15.4035
    13.7990  15.4441  15.4441  15.5182  15.7193  15.7193  18.8337  18.8337
    19.7983  19.7983

          k = 0.2727 0.2727 0.3636 (  3992 PWs)   bands (ev):

   -69.2035 -39.0814 -35.3030 -35.2913 -35.2908 -15.4906 -15.3975 -15.3973
    14.2965  15.1356  15.4426  15.6207  15.7209  15.9354  18.5785  18.6239
    19.6455  20.2947

          k = 0.2727 0.2727 0.4545 (  3990 PWs)   bands (ev):

   -69.2030 -39.0752 -35.3095 -35.2915 -35.2904 -15.5398 -15.3936 -15.3902
    14.5097  14.9115  15.4302  15.5701  15.9004  16.3710  18.1751  18.4970
    19.5914  20.6352

          k = 0.2727 0.3636 0.3636 (  3988 PWs)   bands (ev):

   -69.2027 -39.0709 -35.3037 -35.3021 -35.2902 -15.4822 -15.4785 -15.3893
    14.5957  15.0027  15.4917  15.5872  15.8170  16.0595  18.4143  18.4173
    19.9496  20.4946

          k = 0.2727 0.3636 0.4545 (  3992 PWs)   bands (ev):

   -69.2021 -39.0646 -35.3099 -35.3030 -35.2896 -15.5292 -15.4743 -15.3844
    14.5794  14.9171  15.4521  15.5076  16.1032  16.4659  18.0772  18.3312
    20.0120  20.8206

          k = 0.2727 0.4545 0.4545 (  4000 PWs)   bands (ev):

   -69.2016 -39.0583 -35.3102 -35.3100 -35.2888 -15.5232 -15.5227 -15.3800
    14.5067  14.8769  15.3854  15.4135  16.6254  16.6525  17.9060  18.1706
    20.1897  21.1136

          k = 0.3636 0.3636 0.3636 (  3999 PWs)   bands (ev):

   -69.2018 -39.0607 -35.3021 -35.3021 -35.3018 -15.4725 -15.4722 -15.4722
    14.9948  15.3300  15.4470  15.4470  15.8145  15.8145  18.2411  18.2411
    20.5002  20.5002

          k = 0.3636 0.3636 0.4545 (  4008 PWs)   bands (ev):

   -69.2013 -39.0547 -35.3090 -35.3018 -35.3011 -15.5212 -15.4685 -15.4665
    14.9931  15.1653  15.4767  15.6074  15.7984  16.1604  17.9824  18.1639
    20.5129  20.9126

          k = 0.3636 0.4545 0.4545 (  3994 PWs)   bands (ev):

   -69.2008 -39.0488 -35.3085 -35.3085 -35.3006 -15.5165 -15.5165 -15.4635
    15.1008  15.2495  15.3888  15.4963  16.0924  16.1437  17.8651  18.0301
    20.7353  21.1430

          k = 0.4545 0.4545 0.4545 (  3972 PWs)   bands (ev):

   -69.2003 -39.0431 -35.3076 -35.3075 -35.3075 -15.5128 -15.5128 -15.5124
    15.3317  15.4752  15.4752  15.7775  15.7775  15.8004  17.8552  17.8552
    21.1597  21.1597

     the Fermi energy is    17.5936 ev

!    total energy              =    -448.58655249 Ry
     estimated scf accuracy    <          7.2E-10 Ry
     smearing contrib. (-TS)   =       0.00005038 Ry
     internal energy E=F+TS    =    -448.58660287 Ry

     The total energy is F=E-TS. E is the sum of the following terms:
     one-electron contribution =    -151.34228258 Ry
     hartree contribution      =      91.61721387 Ry
     xc contribution           =     -52.88698661 Ry
     ewald contribution        =    -259.82070277 Ry
     one-center paw contrib.   =     -76.15384478 Ry

     convergence has been achieved in  37 iterations

     negative rho (up, down):  9.642E-04 0.000E+00

     Forces acting on atoms (cartesian axes, Ry/au):

     atom    1 type  1   force =     0.00000000    0.00000000    0.00000000
     atom    2 type  2   force =     0.00000000    0.00000000    0.00000000

     Total force =     0.000000     Total SCF correction =     0.000000


     Computing stress (Cartesian axis) and pressure


     negative rho (up, down):  9.642E-04 0.000E+00
          total   stress  (Ry/bohr**3)                   (kbar)     P=       31.49
   0.00021405   0.00000000   0.00000000           31.49        0.00        0.00
   0.00000000   0.00021405   0.00000000            0.00       31.49        0.00
   0.00000000   0.00000000   0.00021405            0.00        0.00       31.49


     BFGS Geometry Optimization
     Energy error            =      2.8E-03 Ry
     Gradient error          =      0.0E+00 Ry/Bohr
     Cell gradient error     =      6.9E+01 kbar

     number of scf cycles    =   1
     number of bfgs steps    =   0

     enthalpy           new  =    -448.4701329669 Ry

     new trust radius        =       0.0304746859 bohr
     new conv_thr            =       0.0000000100 Ry

     new unit-cell volume =    165.34627 a.u.^3 (    24.50179 Ang^3 )
     density =      7.02879 g/cm^3

CELL_PARAMETERS (alat=  5.55330037)
   0.988356528   0.000000000   0.000000000
   0.000000000   0.988356528   0.000000000
   0.000000000   0.000000000   0.988356528

ATOMIC_POSITIONS (crystal)
Fe               0.5000000000        0.5000000000        0.5000000000
Ti               0.0000000000        0.0000000000        0.0000000000



     Writing config-only to output data dir ./TiFe.save/ :
     XML data file
     NEW-OLD atomic charge density approx. for the potential
     New effective cutoffs (rho, wfc): 1777.01  126.93

     Check: negative core charge=   -0.000002

     negative rho (up, down):  9.495E-04 0.000E+00

     total cpu time spent up to now is       36.2 secs

     per-process dynamical memory:   228.7 Mb

     Self-consistent Calculation

     iteration #  1     ecut=   124.00 Ry     beta= 0.70
     Davidson diagonalization with overlap
     ethr =  1.00E-06,  avg # of iterations =  7.4

     negative rho (up, down):  9.544E-04 0.000E+00

     total cpu time spent up to now is       37.8 secs

     total energy              =    -448.58324857 Ry
     estimated scf accuracy    <       0.00002878 Ry

     iteration #  2     ecut=   124.00 Ry     beta= 0.70
     Davidson diagonalization with overlap
     ethr =  1.03E-07,  avg # of iterations =  2.7

     negative rho (up, down):  9.526E-04 0.000E+00

     total cpu time spent up to now is       38.7 secs

     total energy              =    -448.58369338 Ry
     estimated scf accuracy    <       0.00002768 Ry

     iteration #  3     ecut=   124.00 Ry     beta= 0.70
     Davidson diagonalization with overlap
     ethr =  9.88E-08,  avg # of iterations =  3.9

     negative rho (up, down):  9.550E-04 0.000E+00

     total cpu time spent up to now is       39.7 secs

     total energy              =    -448.58371722 Ry
     estimated scf accuracy    <       0.00050432 Ry

     iteration #  4     ecut=   124.00 Ry     beta= 0.70
     Davidson diagonalization with overlap
     ethr =  9.88E-08,  avg # of iterations =  3.9

     negative rho (up, down):  9.557E-04 0.000E+00

     total cpu time spent up to now is       40.7 secs

     total energy              =    -448.58375299 Ry
     estimated scf accuracy    <       0.00000178 Ry

     iteration #  5     ecut=   124.00 Ry     beta= 0.70
     Davidson diagonalization with overlap
     ethr =  6.35E-09,  avg # of iterations =  2.1

     negative rho (up, down):  9.556E-04 0.000E+00

     total cpu time spent up to now is       41.5 secs

     End of self-consistent calculation

          k = 0.0000 0.0000 0.0000 (  3911 PWs)   bands (ev):

   -68.5042 -38.3506 -34.5669 -34.5669 -34.5669 -14.4337 -14.4337 -14.4337
    10.7751  14.4022  14.4022  17.3415  17.3415  17.3415  19.7843  19.7843
    21.8185  21.8185

          k = 0.0000 0.0000 0.0920 (  3947 PWs)   bands (ev):

   -68.5039 -38.3483 -34.5697 -34.5665 -34.5665 -14.4669 -14.4318 -14.4318
    10.9538  14.4887  14.4992  17.3283  17.3283  17.3812  19.6721  19.8270
    21.5541  21.5541

          k = 0.0000 0.0000 0.1840 (  3964 PWs)   bands (ev):

   -68.5030 -38.3420 -34.5770 -34.5653 -34.5653 -14.5552 -14.4267 -14.4267
    11.4710  14.7421  14.7527  17.2985  17.2985  17.4924  19.3480  19.9252
    20.9400  20.9400

          k = 0.0000 0.0000 0.2759 (  3988 PWs)   bands (ev):

   -68.5019 -38.3339 -34.5865 -34.5637 -34.5637 -14.6692 -14.4199 -14.4199
    12.2705  15.0492  15.1414  17.2738  17.2738  17.6506  18.8528  19.9706
    20.2611  20.2611

          k = 0.0000 0.0000 0.3679 (  4008 PWs)   bands (ev):

   -68.5008 -38.3264 -34.5951 -34.5622 -34.5622 -14.7726 -14.4137 -14.4137
    13.2500  15.1988  15.6371  17.2709  17.2709  17.8119  18.2657  19.7049
    19.7049  19.7888

          k = 0.0000 0.0000 0.4599 (  3992 PWs)   bands (ev):

   -68.5001 -38.3220 -34.6001 -34.5613 -34.5613 -14.8333 -14.4100 -14.4100
    14.2248  14.9742  16.0839  17.2821  17.2821  17.7633  17.9172  19.3896
    19.3896  19.4730

          k = 0.0000 0.0920 0.0920 (  3966 PWs)   bands (ev):

   -68.5036 -38.3458 -34.5709 -34.5678 -34.5660 -14.4684 -14.4609 -14.4298
    11.1286  14.5732  14.5945  17.2409  17.3070  17.4832  19.6562  19.7959
    21.2634  21.2906

          k = 0.0000 0.0920 0.1840 (  3978 PWs)   bands (ev):

   -68.5027 -38.3391 -34.5778 -34.5677 -34.5648 -14.5524 -14.4582 -14.4244
    11.6337  14.8032  14.8585  17.1564  17.2552  17.6076  19.4068  19.8818
    20.6934  20.7261

          k = 0.0000 0.0920 0.2759 (  3995 PWs)   bands (ev):

   -68.5015 -38.3303 -34.5874 -34.5670 -34.5633 -14.6652 -14.4505 -14.4173
    12.4106  15.1044  15.2251  17.1115  17.1976  17.6974  18.9849  19.8587
    20.1688  20.2006

          k = 0.0000 0.0920 0.3679 (  3991 PWs)   bands (ev):

   -68.5005 -38.3223 -34.5962 -34.5662 -34.5618 -14.7674 -14.4433 -14.4108
    13.3540  15.2488  15.6761  17.1196  17.1452  17.7027  18.5046  19.4263
    19.8507  20.0256

          k = 0.0000 0.0920 0.4599 (  3999 PWs)   bands (ev):

   -68.4998 -38.3176 -34.6014 -34.5657 -34.5610 -14.8275 -14.4391 -14.4069
    14.2803  15.0184  16.0813  17.0720  17.1614  17.6425  18.1625  19.1234
    19.7111  19.8306

          k = 0.0000 0.1840 0.1840 (  3972 PWs)   bands (ev):

   -68.5018 -38.3312 -34.5816 -34.5727 -34.5637 -14.5541 -14.5331 -14.4183
    12.0993  14.9582  15.1547  16.9722  17.1571  17.6906  19.4633  19.8374
    20.1528  20.3839

          k = 0.0000 0.1840 0.2759 (  4003 PWs)   bands (ev):

   -68.5006 -38.3208 -34.5902 -34.5755 -34.5622 -14.6546 -14.5315 -14.4103
    12.7986  15.1415  15.5556  16.8449  17.0655  17.6111  19.2771  19.5858
    20.0056  20.1965

          k = 0.0000 0.1840 0.3679 (  3997 PWs)   bands (ev):

   -68.4996 -38.3113 -34.5993 -34.5768 -34.5608 -14.7535 -14.5221 -14.4029
    13.6106  15.2068  15.9604  16.8082  17.0398  17.3886  18.9576  19.2336
    20.1474  20.2197

          k = 0.0000 0.1840 0.4599 (  3990 PWs)   bands (ev):

   -68.4990 -38.3056 -34.6048 -34.5775 -34.5599 -14.8118 -14.5164 -14.3986
    14.3473  15.0075  16.2488  16.8643  17.0818  17.1559  18.7802  18.9799
    20.1811  20.3237

          k = 0.0000 0.2759 0.2759 (  4000 PWs)   bands (ev):

   -68.4995 -38.3083 -34.5956 -34.5849 -34.5607 -14.6508 -14.6263 -14.4011
    13.3366  15.1247  16.0335  16.6254  17.0261  17.3288  19.3542  19.5176
    19.9055  20.3801

          k = 0.0000 0.2759 0.3679 (  3993 PWs)   bands (ev):

   -68.4984 -38.2968 -34.6036 -34.5906 -34.5594 -14.7354 -14.6240 -14.3926
    13.8757  15.0171  16.5034  16.5105  16.9861  17.2030  19.1661  19.4976
    20.0895  20.6722

          k = 0.0000 0.2759 0.4599 (  3996 PWs)   bands (ev):

   -68.4978 -38.2899 -34.6093 -34.5929 -34.5586 -14.7912 -14.6165 -14.3876
    14.2653  14.8466  16.5254  16.7079  16.7618  17.5822  18.9153  19.4476
    20.3249  20.9343

          k = 0.0000 0.3679 0.3679 (  4002 PWs)   bands (ev):

   -68.4974 -38.2834 -34.6085 -34.6022 -34.5581 -14.7246 -14.7105 -14.3831
    14.0308  14.8062  16.3142  16.6203  17.1403  17.6362  19.3069  19.8736
    19.9228  21.0990

          k = 0.0000 0.3679 0.4599 (  3999 PWs)   bands (ev):

   -68.4968 -38.2754 -34.6135 -34.6071 -34.5574 -14.7723 -14.7073 -14.3775
    14.0865  14.6704  16.2603  16.3674  17.5301  18.3099  19.0619  19.9421
    20.1525  21.4190

          k = 0.0000 0.4599 0.4599 (  3998 PWs)   bands (ev):

   -68.4962 -38.2668 -34.6162 -34.6153 -34.5566 -14.7619 -14.7599 -14.3714
    13.9593  14.5662  16.1331  16.1691  18.2497  18.7617  19.4823  19.6768
    20.2173  21.7054

          k = 0.0920 0.0920 0.0920 (  3959 PWs)   bands (ev):

   -68.5032 -38.3431 -34.5704 -34.5704 -34.5662 -14.4691 -14.4589 -14.4589
    11.3002  14.6723  14.6723  17.2175  17.2175  17.5657  19.7117  19.7117
    20.8244  21.5326

          k = 0.0920 0.0920 0.1840 (  3966 PWs)   bands (ev):

   -68.5024 -38.3360 -34.5781 -34.5692 -34.5661 -14.5496 -14.4578 -14.4537
    11.7951  14.8988  14.9292  17.1012  17.1555  17.6536  19.4691  19.8414
    20.3262  20.9161

          k = 0.0920 0.0920 0.2759 (  3992 PWs)   bands (ev):

   -68.5012 -38.3268 -34.5881 -34.5676 -34.5658 -14.6612 -14.4488 -14.4468
    12.5526  15.2201  15.2504  17.0410  17.0716  17.6486  19.1033  19.7963
    20.1252  20.2483

          k = 0.0920 0.0920 0.3679 (  3994 PWs)   bands (ev):

   -68.5001 -38.3183 -34.5971 -34.5660 -34.5656 -14.7624 -14.4405 -14.4404
    13.4646  15.3379  15.6757  16.9678  17.0758  17.5561  18.6960  19.5073
    19.7169  20.2348

          k = 0.0920 0.0920 0.4599 (  4007 PWs)   bands (ev):

   -68.4995 -38.3132 -34.6025 -34.5655 -34.5652 -14.8219 -14.4368 -14.4353
    14.3496  15.0865  16.0486  16.8374  17.2009  17.4598  18.4054  19.2186
    19.4255  20.3484

          k = 0.0920 0.1840 0.1840 (  3984 PWs)   bands (ev):

   -68.5015 -38.3279 -34.5811 -34.5739 -34.5663 -14.5504 -14.5311 -14.4491
    12.2560  15.0687  15.2067  16.9337  17.0420  17.6162  19.5373  19.8070
    20.0312  20.6174

          k = 0.0920 0.1840 0.2759 (  3994 PWs)   bands (ev):

   -68.5003 -38.3172 -34.5902 -34.5758 -34.5657 -14.6508 -14.5288 -14.4406
    12.9456  15.2667  15.5754  16.7997  16.9418  17.4242  19.3735  19.7145
    20.0410  20.2612

          k = 0.0920 0.1840 0.3679 (  4001 PWs)   bands (ev):

   -68.4993 -38.3073 -34.5997 -34.5766 -34.5649 -14.7491 -14.5193 -14.4327
    13.7400  15.3411  15.9103  16.7249  16.9380  17.2292  19.1190  19.3572
    19.8997  20.5457

          k = 0.0920 0.1840 0.4599 (  3993 PWs)   bands (ev):

   -68.4986 -38.3015 -34.6055 -34.5771 -34.5643 -14.8070 -14.5136 -14.4279
    14.4535  15.1237  16.1438  16.6604  17.0406  17.1791  18.9392  19.0558
    19.6902  20.9594

          k = 0.0920 0.2759 0.2759 (  3989 PWs)   bands (ev):

   -68.4992 -38.3046 -34.5951 -34.5854 -34.5647 -14.6464 -14.6242 -14.4312
    13.4890  15.2549  16.0431  16.5859  16.8861  17.1069  19.4778  19.6802
    19.8874  20.5253

          k = 0.0920 0.2759 0.3679 (  3985 PWs)   bands (ev):

   -68.4981 -38.2930 -34.6034 -34.5905 -34.5636 -14.7317 -14.6213 -14.4224
    14.0249  15.1486  16.4251  16.4785  16.8689  17.0571  19.2528  19.5922
    19.9639  20.9617

          k = 0.0920 0.2759 0.4599 (  4006 PWs)   bands (ev):

   -68.4975 -38.2861 -34.6094 -34.5925 -34.5629 -14.7875 -14.6140 -14.4172
    14.3993  14.9784  16.4378  16.4978  16.8331  17.4809  18.9557  19.5568
    19.8947  21.4688

          k = 0.0920 0.3679 0.3679 (  3992 PWs)   bands (ev):

   -68.4971 -38.2797 -34.6079 -34.6022 -34.5624 -14.7212 -14.7084 -14.4130
    14.1815  14.9371  16.2830  16.5277  17.0967  17.4536  19.2641  19.7940
    19.9784  21.4313

          k = 0.0920 0.3679 0.4599 (  4002 PWs)   bands (ev):

   -68.4965 -38.2718 -34.6131 -34.6066 -34.5616 -14.7696 -14.7050 -14.4073
    14.2274  14.8047  16.2273  16.3147  17.4543  18.1237  19.0136  19.7583
    20.0771  21.6698

          k = 0.0920 0.4599 0.4599 (  3993 PWs)   bands (ev):

   -68.4958 -38.2633 -34.6156 -34.6148 -34.5609 -14.7596 -14.7579 -14.4015
    14.1011  14.7010  16.1107  16.1421  18.1921  18.6221  19.2041  19.3158
    20.2980  21.9027

          k = 0.1840 0.1840 0.1840 (  3989 PWs)   bands (ev):

   -68.5006 -38.3190 -34.5797 -34.5797 -34.5708 -14.5460 -14.5256 -14.5256
    12.7006  15.3545  15.3545  16.8311  16.8311  17.3414  19.7173  19.7173
    20.0943  20.8729

          k = 0.1840 0.1840 0.2759 (  3992 PWs)   bands (ev):

   -68.4995 -38.3074 -34.5906 -34.5780 -34.5735 -14.6407 -14.5240 -14.5185
    13.3536  15.5718  15.6534  16.6885  16.6941  17.0106  19.5811  19.8054
    20.2319  20.4180

          k = 0.1840 0.1840 0.3679 (  3994 PWs)   bands (ev):

   -68.4984 -38.2967 -34.6011 -34.5764 -34.5754 -14.7373 -14.5119 -14.5116
    14.0754  15.6497  15.8136  16.5510  16.7301  16.9343  19.4371  19.5390
    19.7334  21.0099

          k = 0.1840 0.1840 0.4599 (  3986 PWs)   bands (ev):

   -68.4978 -38.2904 -34.6073 -34.5765 -34.5754 -14.7943 -14.5080 -14.5040
    14.6822  15.3360  16.0063  16.4304  16.8569  17.1342  19.1145  19.3540
    19.4507  21.3900

          k = 0.1840 0.2759 0.2759 (  3994 PWs)   bands (ev):

   -68.4983 -38.2946 -34.5936 -34.5870 -34.5751 -14.6347 -14.6186 -14.5112
    13.9146  15.6096  16.0642  16.4846  16.5720  16.6562  19.6117  19.8077
    20.1232  20.9242

          k = 0.1840 0.2759 0.3679 (  3988 PWs)   bands (ev):

   -68.4973 -38.2828 -34.6031 -34.5902 -34.5748 -14.7220 -14.6141 -14.5018
    14.4390  15.4926  16.2122  16.3692  16.6422  16.7573  19.3710  19.6306
    20.0095  21.2299

          k = 0.1840 0.2759 0.4599 (  3991 PWs)   bands (ev):

   -68.4966 -38.2758 -34.6099 -34.5912 -34.5744 -14.7776 -14.6072 -14.4961
    14.7602  15.3010  16.1763  16.3175  16.7408  17.2426  19.0045  19.4570
    19.9128  21.4645

          k = 0.1840 0.3679 0.3679 (  3990 PWs)   bands (ev):

   -68.4962 -38.2699 -34.6063 -34.6021 -34.5737 -14.7120 -14.7029 -14.4925
    14.6117  15.2777  16.2055  16.3296  16.9609  17.0021  19.2359  19.4891
    20.2881  21.4005

          k = 0.1840 0.3679 0.4599 (  3993 PWs)   bands (ev):

   -68.4956 -38.2623 -34.6123 -34.6052 -34.5730 -14.7622 -14.6989 -14.4869
    14.6270  15.1549  16.1491  16.2015  17.2015  17.6608  18.9483  19.3214
    20.3692  21.6558

          k = 0.1840 0.4599 0.4599 (  4002 PWs)   bands (ev):

   -68.4950 -38.2542 -34.6139 -34.6133 -34.5722 -14.7537 -14.7524 -14.4815
    14.5070  15.0597  16.0580  16.0814  17.9118  18.0366  18.8357  19.0193
    20.5700  21.9607

          k = 0.2759 0.2759 0.2759 (  3998 PWs)   bands (ev):

   -68.4972 -38.2815 -34.5917 -34.5917 -34.5861 -14.6226 -14.6113 -14.6113
    14.4988  16.0781  16.0781  16.1545  16.3641  16.3641  19.6242  19.6242
    20.6159  20.6159

          k = 0.2759 0.2759 0.3679 (  3992 PWs)   bands (ev):

   -68.4961 -38.2694 -34.6031 -34.5899 -34.5890 -14.7093 -14.6046 -14.6043
    14.9776  15.7657  16.0698  16.2695  16.3750  16.6000  19.3627  19.4029
    20.4544  21.1386

          k = 0.2759 0.2759 0.4599 (  3990 PWs)   bands (ev):

   -68.4955 -38.2622 -34.6105 -34.5902 -34.5888 -14.7646 -14.6006 -14.5959
    15.1470  15.5476  16.0514  16.2231  16.5809  17.0661  18.9449  19.2687
    20.3974  21.4989

          k = 0.2759 0.3679 0.3679 (  3988 PWs)   bands (ev):

   -68.4951 -38.2570 -34.6042 -34.6020 -34.5885 -14.6999 -14.6956 -14.5954
    15.2423  15.6362  16.1223  16.2339  16.4913  16.7390  19.1859  19.1931
    20.7751  21.3480

          k = 0.2759 0.3679 0.4599 (  3992 PWs)   bands (ev):

   -68.4945 -38.2497 -34.6112 -34.6033 -34.5879 -14.7526 -14.6909 -14.5900
    15.1941  15.5515  16.0811  16.1510  16.7994  17.1714  18.8396  19.0989
    20.8410  21.6920

          k = 0.2759 0.4599 0.4599 (  4000 PWs)   bands (ev):

   -68.4939 -38.2422 -34.6117 -34.6114 -34.5869 -14.7458 -14.7452 -14.5851
    15.1102  15.5117  16.0134  16.0455  17.3446  17.3675  18.6578  18.9342
    21.0295  21.9997

          k = 0.3679 0.3679 0.3679 (  3999 PWs)   bands (ev):

   -68.4941 -38.2451 -34.6023 -34.6023 -34.6018 -14.6889 -14.6889 -14.6887
    15.6106  16.0294  16.0807  16.0807  16.4801  16.4801  19.0063  19.0063
    21.3537  21.3537

          k = 0.3679 0.3679 0.4599 (  4008 PWs)   bands (ev):

   -68.4935 -38.2380 -34.6102 -34.6020 -34.6012 -14.7438 -14.6849 -14.6821
    15.6098  15.8026  16.1192  16.2568  16.4885  16.8454  18.7378  18.9245
    21.3671  21.7885

          k = 0.3679 0.4599 0.4599 (  3994 PWs)   bands (ev):

   -68.4929 -38.2311 -34.6097 -34.6097 -34.6005 -14.7386 -14.7386 -14.6791
    15.7227  15.8944  16.0245  16.1465  16.7798  16.8288  18.6136  18.7861
    21.6018  22.0307

          k = 0.4599 0.4599 0.4599 (  3972 PWs)   bands (ev):

   -68.4923 -38.2245 -34.6087 -34.6085 -34.6085 -14.7346 -14.7346 -14.7341
    15.9703  16.1276  16.1276  16.4332  16.4332  16.4711  18.6031  18.6031
    22.0485  22.0485

     the Fermi energy is    18.3531 ev

!    total energy              =    -448.58375350 Ry
     estimated scf accuracy    <          7.6E-09 Ry
     smearing contrib. (-TS)   =       0.00001511 Ry
     internal energy E=F+TS    =    -448.58376861 Ry

     The total energy is F=E-TS. E is the sum of the following terms:
     one-electron contribution =    -146.63159616 Ry
     hartree contribution      =      90.03425545 Ry
     xc contribution           =     -52.95024536 Ry
     ewald contribution        =    -262.88155677 Ry
     one-center paw contrib.   =     -76.15462577 Ry

     convergence has been achieved in   5 iterations

     negative rho (up, down):  9.556E-04 0.000E+00

     Forces acting on atoms (cartesian axes, Ry/au):

     atom    1 type  1   force =     0.00000000    0.00000000    0.00000000
     atom    2 type  2   force =     0.00000000    0.00000000    0.00000000

     Total force =     0.000000     Total SCF correction =     0.000000


     Computing stress (Cartesian axis) and pressure


     negative rho (up, down):  9.556E-04 0.000E+00
          total   stress  (Ry/bohr**3)                   (kbar)     P=      109.57
   0.00074484   0.00000000   0.00000000          109.57        0.00        0.00
   0.00000000   0.00074484   0.00000000            0.00      109.57        0.00
   0.00000000   0.00000000   0.00074484            0.00        0.00      109.57

     Energy error            =      1.2E-03 Ry
     Gradient error          =      0.0E+00 Ry/Bohr
     Cell gradient error     =      9.6E+00 kbar

     number of scf cycles    =   2
     number of bfgs steps    =   1

     enthalpy           old  =    -448.4701329669 Ry
     enthalpy           new  =    -448.4713533898 Ry

     CASE: enthalpy          _new < enthalpy          _old

     new trust radius        =       0.0036374206 bohr
     new conv_thr            =            1.0E-10 Ry

     new unit-cell volume =    166.04885 a.u.^3 (    24.60590 Ang^3 )
     density =      6.99905 g/cm^3

CELL_PARAMETERS (alat=  5.55330037)
   0.989754441   0.000000000   0.000000000
   0.000000000   0.989754441   0.000000000
   0.000000000   0.000000000   0.989754441

ATOMIC_POSITIONS (crystal)
Fe               0.5000000000        0.5000000000        0.5000000000
Ti               0.0000000000        0.0000000000        0.0000000000



     Writing config-only to output data dir ./TiFe.save/ :
     XML data file
     NEW-OLD atomic charge density approx. for the potential
     New effective cutoffs (rho, wfc): 1771.99  126.57

     Check: negative core charge=   -0.000002

     negative rho (up, down):  9.563E-04 0.000E+00

     total cpu time spent up to now is       43.4 secs

     per-process dynamical memory:   229.2 Mb

     Self-consistent Calculation

     iteration #  1     ecut=   124.00 Ry     beta= 0.70
     Davidson diagonalization with overlap
     ethr =  1.00E-06,  avg # of iterations =  2.6

     Threshold (ethr) on eigenvalues was too large:
     Diagonalizing with lowered threshold

     Davidson diagonalization with overlap
     ethr =  8.24E-09,  avg # of iterations =  6.4

     negative rho (up, down):  9.568E-04 0.000E+00

     total cpu time spent up to now is       45.4 secs

     total energy              =    -448.58424115 Ry
     estimated scf accuracy    <       0.00000503 Ry

     iteration #  2     ecut=   124.00 Ry     beta= 0.70
     Davidson diagonalization with overlap
     ethr =  1.80E-08,  avg # of iterations =  4.4

     negative rho (up, down):  9.564E-04 0.000E+00

     total cpu time spent up to now is       46.5 secs

     total energy              =    -448.58422929 Ry
     estimated scf accuracy    <       0.00039068 Ry

     iteration #  3     ecut=   124.00 Ry     beta= 0.70
     Davidson diagonalization with overlap
     ethr =  1.80E-08,  avg # of iterations =  4.8

     negative rho (up, down):  9.569E-04 0.000E+00

     total cpu time spent up to now is       47.5 secs

     total energy              =    -448.58425432 Ry
     estimated scf accuracy    <       0.00000271 Ry

     iteration #  4     ecut=   124.00 Ry     beta= 0.70
     Davidson diagonalization with overlap
     ethr =  9.69E-09,  avg # of iterations =  1.5

     negative rho (up, down):  9.569E-04 0.000E+00

     total cpu time spent up to now is       48.4 secs

     total energy              =    -448.58425459 Ry
     estimated scf accuracy    <       0.00000036 Ry

     iteration #  5     ecut=   124.00 Ry     beta= 0.70
     Davidson diagonalization with overlap
     ethr =  1.29E-09,  avg # of iterations =  3.7

     negative rho (up, down):  9.568E-04 0.000E+00

     total cpu time spent up to now is       49.3 secs

     total energy              =    -448.58425464 Ry
     estimated scf accuracy    <       0.00000002 Ry

     iteration #  6     ecut=   124.00 Ry     beta= 0.70
     Davidson diagonalization with overlap
     ethr =  7.76E-11,  avg # of iterations =  4.7

     negative rho (up, down):  9.568E-04 0.000E+00

     total cpu time spent up to now is       50.3 secs

     total energy              =    -448.58425465 Ry
     estimated scf accuracy    <          2.3E-09 Ry

     iteration #  7     ecut=   124.00 Ry     beta= 0.70
     Davidson diagonalization with overlap
     ethr =  8.36E-12,  avg # of iterations =  4.0

     negative rho (up, down):  9.568E-04 0.000E+00

     total cpu time spent up to now is       51.2 secs

     total energy              =    -448.58425465 Ry
     estimated scf accuracy    <          4.8E-09 Ry

     iteration #  8     ecut=   124.00 Ry     beta= 0.70
     Davidson diagonalization with overlap
     ethr =  8.36E-12,  avg # of iterations =  3.2

     negative rho (up, down):  9.568E-04 0.000E+00

     total cpu time spent up to now is       52.2 secs

     total energy              =    -448.58425465 Ry
     estimated scf accuracy    <          8.8E-10 Ry

     iteration #  9     ecut=   124.00 Ry     beta= 0.70
     Davidson diagonalization with overlap
     ethr =  3.13E-12,  avg # of iterations =  1.6

     negative rho (up, down):  9.568E-04 0.000E+00

     total cpu time spent up to now is       53.0 secs

     total energy              =    -448.58425465 Ry
     estimated scf accuracy    <          4.4E-10 Ry

     iteration # 10     ecut=   124.00 Ry     beta= 0.70
     Davidson diagonalization with overlap
     ethr =  1.56E-12,  avg # of iterations =  2.0

     negative rho (up, down):  9.568E-04 0.000E+00

     total cpu time spent up to now is       53.8 secs

     total energy              =    -448.58425465 Ry
     estimated scf accuracy    <          1.0E-10 Ry

     iteration # 11     ecut=   124.00 Ry     beta= 0.70
     Davidson diagonalization with overlap
     ethr =  3.63E-13,  avg # of iterations =  4.8

     negative rho (up, down):  9.568E-04 0.000E+00

     total cpu time spent up to now is       54.8 secs

     End of self-consistent calculation

          k = 0.0000 0.0000 0.0000 (  3911 PWs)   bands (ev):

   -68.5906 -38.4485 -34.6531 -34.6531 -34.6531 -14.5331 -14.5331 -14.5331
    10.6985  14.3365  14.3365  17.2577  17.2577  17.2577  19.6881  19.6881
    21.7105  21.7105

          k = 0.0000 0.0000 0.0919 (  3947 PWs)   bands (ev):

   -68.5903 -38.4462 -34.6558 -34.6526 -34.6526 -14.5657 -14.5312 -14.5312
    10.8764  14.4226  14.4326  17.2446  17.2446  17.2972  19.5767  19.7304
    21.4478  21.4478

          k = 0.0000 0.0000 0.1837 (  3964 PWs)   bands (ev):

   -68.5894 -38.4400 -34.6630 -34.6514 -34.6514 -14.6527 -14.5261 -14.5261
    11.3917  14.6747  14.6835  17.2148  17.2148  17.4078  19.2550  19.8276
    20.8374  20.8374

          k = 0.0000 0.0000 0.2756 (  3988 PWs)   bands (ev):

   -68.5883 -38.4320 -34.6724 -34.6499 -34.6499 -14.7651 -14.5194 -14.5194
    12.1887  14.9761  15.0721  17.1901  17.1901  17.5651  18.7632  19.8715
    20.1626  20.1626

          k = 0.0000 0.0000 0.3674 (  4008 PWs)   bands (ev):

   -68.5872 -38.4246 -34.6810 -34.6484 -34.6484 -14.8669 -14.5133 -14.5133
    13.1658  15.1212  15.5653  17.1870  17.1870  17.7254  18.1801  19.6098
    19.6098  19.6886

          k = 0.0000 0.0000 0.4593 (  3992 PWs)   bands (ev):

   -68.5866 -38.4202 -34.6860 -34.6476 -34.6476 -14.9268 -14.5096 -14.5096
    14.1400  14.8920  16.0095  17.1979  17.1979  17.6810  17.8301  19.2965
    19.2965  19.3732

          k = 0.0000 0.0919 0.0919 (  3966 PWs)   bands (ev):

   -68.5900 -38.4437 -34.6570 -34.6540 -34.6522 -14.5672 -14.5599 -14.5292
    11.0506  14.5065  14.5272  17.1579  17.2234  17.3985  19.5609  19.6996
    21.1589  21.1859

          k = 0.0000 0.0919 0.1837 (  3978 PWs)   bands (ev):

   -68.5891 -38.4371 -34.6638 -34.6539 -34.6510 -14.6500 -14.5572 -14.5239
    11.5539  14.7350  14.7890  17.0738  17.1718  17.5221  19.3133  19.7845
    20.5922  20.6250

          k = 0.0000 0.0919 0.2756 (  3995 PWs)   bands (ev):

   -68.5880 -38.4285 -34.6733 -34.6531 -34.6495 -14.7611 -14.5495 -14.5169
    12.3285  15.0322  15.1540  17.0291  17.1143  17.6112  18.8944  19.7606
    20.0704  20.1026

          k = 0.0000 0.0919 0.3674 (  3991 PWs)   bands (ev):

   -68.5869 -38.4205 -34.6820 -34.6524 -34.6481 -14.8618 -14.5425 -14.5104
    13.2699  15.1714  15.6034  17.0369  17.0620  17.6167  18.4172  19.3308
    19.7547  19.9261

          k = 0.0000 0.0919 0.4593 (  3999 PWs)   bands (ev):

   -68.5863 -38.4158 -34.6872 -34.6519 -34.6472 -14.9211 -14.5383 -14.5066
    14.1960  14.9366  16.0065  16.9894  17.0781  17.5572  18.0770  19.0291
    19.6158  19.7311

          k = 0.0000 0.1837 0.1837 (  3972 PWs)   bands (ev):

   -68.5882 -38.4293 -34.6675 -34.6588 -34.6499 -14.6516 -14.6311 -14.5178
    12.0181  14.8888  15.0830  16.8909  17.0740  17.6043  19.3693  19.7406
    20.0545  20.2850

          k = 0.0000 0.1837 0.2756 (  4003 PWs)   bands (ev):

   -68.5871 -38.4191 -34.6760 -34.6616 -34.6484 -14.7507 -14.6295 -14.5099
    12.7160  15.0700  15.4810  16.7643  16.9824  17.5253  19.1846  19.4898
    19.9076  20.0987

          k = 0.0000 0.1837 0.3674 (  3997 PWs)   bands (ev):

   -68.5861 -38.4097 -34.6850 -34.6629 -34.6470 -14.8482 -14.6202 -14.5027
    13.5277  15.1319  15.8835  16.7277  16.9562  17.3043  18.8672  19.1391
    20.0472  20.1215

          k = 0.0000 0.1837 0.4593 (  3990 PWs)   bands (ev):

   -68.5855 -38.4042 -34.6905 -34.6635 -34.6462 -14.9057 -14.6145 -14.4983
    14.2661  14.9286  16.1709  16.7832  16.9970  17.0734  18.6907  18.8865
    20.0794  20.2246

          k = 0.0000 0.2756 0.2756 (  4000 PWs)   bands (ev):

   -68.5860 -38.4068 -34.6813 -34.6709 -34.6470 -14.7470 -14.7229 -14.5009
    13.2546  15.0526  15.9555  16.5462  16.9420  17.2449  19.2593  19.4237
    19.8075  20.2810

          k = 0.0000 0.2756 0.3674 (  3993 PWs)   bands (ev):

   -68.5850 -38.3955 -34.6891 -34.6764 -34.6457 -14.8304 -14.7206 -14.4925
    13.7961  14.9437  16.4222  16.4319  16.9044  17.1161  19.0718  19.4035
    19.9897  20.5712

          k = 0.0000 0.2756 0.4593 (  3996 PWs)   bands (ev):

   -68.5843 -38.3888 -34.6948 -34.6787 -34.6449 -14.8855 -14.7133 -14.4875
    14.1896  14.7709  16.4466  16.6281  16.6788  17.4919  18.8218  19.3543
    20.2221  20.8314

          k = 0.0000 0.3674 0.3674 (  4002 PWs)   bands (ev):

   -68.5839 -38.3824 -34.6939 -34.6878 -34.6445 -14.8198 -14.8060 -14.4832
    13.9561  14.7330  16.2368  16.5409  17.0552  17.5450  19.2107  19.7775
    19.8232  20.9952

          k = 0.0000 0.3674 0.4593 (  3999 PWs)   bands (ev):

   -68.5833 -38.3746 -34.6989 -34.6925 -34.6437 -14.8669 -14.8028 -14.4776
    14.0153  14.5967  16.1831  16.2896  17.4423  18.2153  18.9664  19.8450
    20.0506  21.3131

          k = 0.0000 0.4593 0.4593 (  3998 PWs)   bands (ev):

   -68.5827 -38.3661 -34.7015 -34.7006 -34.6430 -14.8567 -14.8547 -14.4717
    13.8903  14.4935  16.0568  16.0925  18.1592  18.6669  19.3822  19.5755
    20.1187  21.5978

          k = 0.0919 0.0919 0.0919 (  3959 PWs)   bands (ev):

   -68.5897 -38.4411 -34.6565 -34.6565 -34.6524 -14.5679 -14.5579 -14.5579
    11.2216  14.6046  14.6046  17.1345  17.1345  17.4804  19.6160  19.6160
    20.7226  21.4264

          k = 0.0919 0.0919 0.1837 (  3966 PWs)   bands (ev):

   -68.5888 -38.4341 -34.6641 -34.6553 -34.6523 -14.6472 -14.5568 -14.5527
    11.7148  14.8300  14.8591  17.0190  17.0729  17.5675  19.3751  19.7444
    20.2274  20.8136

          k = 0.0919 0.0919 0.2756 (  3992 PWs)   bands (ev):

   -68.5876 -38.4250 -34.6740 -34.6537 -34.6521 -14.7572 -14.5479 -14.5460
    12.4701  15.1463  15.1799  16.9589  16.9893  17.5625  19.0120  19.6989
    20.0271  20.1497

          k = 0.0919 0.0919 0.3674 (  3994 PWs)   bands (ev):

   -68.5866 -38.4166 -34.6830 -34.6522 -34.6518 -14.8569 -14.5397 -14.5396
    13.3805  15.2599  15.6031  16.8860  16.9932  17.4708  18.6074  19.4105
    19.6215  20.1350

          k = 0.0919 0.0919 0.4593 (  4007 PWs)   bands (ev):

   -68.5860 -38.4116 -34.6883 -34.6517 -34.6513 -14.9156 -14.5360 -14.5346
    14.2656  15.0047  15.9740  16.7563  17.1170  17.3754  18.3185  19.1222
    19.3318  20.2473

          k = 0.0919 0.1837 0.1837 (  3984 PWs)   bands (ev):

   -68.5879 -38.4261 -34.6670 -34.6600 -34.6525 -14.6480 -14.6291 -14.5482
    12.1744  14.9985  15.1349  16.8525  16.9598  17.5301  19.4428  19.7103
    19.9339  20.5167

          k = 0.0919 0.1837 0.2756 (  3994 PWs)   bands (ev):

   -68.5868 -38.4155 -34.6760 -34.6619 -34.6519 -14.7469 -14.6268 -14.5398
    12.8625  15.1945  15.5006  16.7193  16.8598  17.3394  19.2802  19.6176
    19.9430  20.1626

          k = 0.0919 0.1837 0.3674 (  4001 PWs)   bands (ev):

   -68.5858 -38.4059 -34.6855 -34.6626 -34.6511 -14.8439 -14.6174 -14.5320
    13.6567  15.2653  15.8339  16.6446  16.8554  17.1459  19.0277  19.2617
    19.8019  20.4446

          k = 0.0919 0.1837 0.4593 (  3993 PWs)   bands (ev):

   -68.5851 -38.4001 -34.6911 -34.6631 -34.6505 -14.9010 -14.6118 -14.5273
    14.3719  15.0442  16.0672  16.5799  16.9579  17.0948  18.8488  18.9616
    19.5933  20.8551

          k = 0.0919 0.2756 0.2756 (  3989 PWs)   bands (ev):

   -68.5857 -38.4032 -34.6807 -34.6714 -34.6509 -14.7426 -14.7209 -14.5305
    13.4063  15.1820  15.9651  16.5068  16.8033  17.0242  19.3822  19.5855
    19.7894  20.4248

          k = 0.0919 0.2756 0.3674 (  3985 PWs)   bands (ev):

   -68.5846 -38.3918 -34.6890 -34.6763 -34.6498 -14.8268 -14.7180 -14.5219
    13.9447  15.0744  16.3457  16.3990  16.7875  16.9716  19.1580  19.4976
    19.8652  20.8583

          k = 0.0919 0.2756 0.4593 (  4006 PWs)   bands (ev):

   -68.5840 -38.3850 -34.6950 -34.6782 -34.6491 -14.8818 -14.7108 -14.5167
    14.3231  14.9020  16.3595  16.4183  16.7501  17.3917  18.8618  19.4629
    19.7957  21.3624

          k = 0.0919 0.3674 0.3674 (  3992 PWs)   bands (ev):

   -68.5836 -38.3788 -34.6933 -34.6878 -34.6486 -14.8165 -14.8039 -14.5126
    14.1062  14.8630  16.2057  16.4487  17.0117  17.3636  19.1688  19.6951
    19.8818  21.3250

          k = 0.0919 0.3674 0.4593 (  4002 PWs)   bands (ev):

   -68.5830 -38.3711 -34.6985 -34.6921 -34.6479 -14.8642 -14.8006 -14.5070
    14.1556  14.7303  16.1503  16.2371  17.3667  18.0301  18.9189  19.6591
    19.9797  21.5628

          k = 0.0919 0.4593 0.4593 (  3993 PWs)   bands (ev):

   -68.5824 -38.3628 -34.7009 -34.7001 -34.6471 -14.8545 -14.8527 -14.5013
    14.0315  14.6275  16.0343  16.0655  18.1015  18.5267  19.1075  19.2173
    20.1991  21.7946

          k = 0.1837 0.1837 0.1837 (  3989 PWs)   bands (ev):

   -68.5871 -38.4174 -34.6657 -34.6657 -34.6570 -14.6436 -14.6237 -14.6237
    12.6177  15.2819  15.2819  16.7504  16.7504  17.2569  19.6213  19.6213
    19.9962  20.7706

          k = 0.1837 0.1837 0.2756 (  3992 PWs)   bands (ev):

   -68.5859 -38.4060 -34.6764 -34.6639 -34.6597 -14.7370 -14.6221 -14.6166
    13.2695  15.4983  15.5775  16.6085  16.6140  16.9282  19.4861  19.7077
    20.1334  20.3177

          k = 0.1837 0.1837 0.3674 (  3994 PWs)   bands (ev):

   -68.5849 -38.3955 -34.6867 -34.6624 -34.6615 -14.8323 -14.6101 -14.6098
    13.9916  15.5710  15.7390  16.4713  16.6491  16.8524  19.3433  19.4415
    19.6378  20.9058

          k = 0.1837 0.1837 0.4593 (  3986 PWs)   bands (ev):

   -68.5843 -38.3892 -34.6929 -34.6625 -34.6614 -14.8885 -14.6062 -14.6024
    14.6007  15.2559  15.9312  16.3506  16.7745  17.0497  19.0186  19.2612
    19.3564  21.2847

          k = 0.1837 0.2756 0.2756 (  3994 PWs)   bands (ev):

   -68.5848 -38.3934 -34.6793 -34.6729 -34.6612 -14.7311 -14.7153 -14.6094
    13.8301  15.5346  15.9862  16.4057  16.4920  16.5757  19.5154  19.7100
    20.0260  20.8205

          k = 0.1837 0.2756 0.3674 (  3988 PWs)   bands (ev):

   -68.5838 -38.3818 -34.6887 -34.6760 -34.6608 -14.8172 -14.7108 -14.6001
    14.3570  15.4165  16.1343  16.2904  16.5603  16.6751  19.2754  19.5336
    19.9130  21.1259

          k = 0.1837 0.2756 0.4593 (  3991 PWs)   bands (ev):

   -68.5832 -38.3749 -34.6954 -34.6770 -34.6604 -14.8721 -14.7041 -14.5945
    14.6825  15.2233  16.0996  16.2384  16.6574  17.1559  18.9099  19.3614
    19.8170  21.3589

          k = 0.1837 0.3674 0.3674 (  3990 PWs)   bands (ev):

   -68.5828 -38.3692 -34.6918 -34.6877 -34.6597 -14.8074 -14.7984 -14.5910
    14.5347  15.2017  16.1284  16.2513  16.8765  16.9153  19.1411  19.3921
    20.1898  21.2956

          k = 0.1837 0.3674 0.4593 (  3993 PWs)   bands (ev):

   -68.5822 -38.3617 -34.6977 -34.6907 -34.6591 -14.8569 -14.7946 -14.5855
    14.5537  15.0786  16.0722  16.1239  17.1144  17.5705  18.8541  19.2257
    20.2704  21.5493

          k = 0.1837 0.4593 0.4593 (  4002 PWs)   bands (ev):

   -68.5816 -38.3538 -34.6992 -34.6987 -34.6582 -14.8485 -14.8473 -14.5801
    14.4357  14.9843  15.9816  16.0047  17.8214  17.9439  18.7418  18.9251
    20.4697  21.8525

          k = 0.2756 0.2756 0.2756 (  3998 PWs)   bands (ev):

   -68.5837 -38.3805 -34.6774 -34.6774 -34.6720 -14.7192 -14.7081 -14.7081
    14.4128  16.0005  16.0005  16.0767  16.2852  16.2852  19.5274  19.5274
    20.5159  20.5159

          k = 0.2756 0.2756 0.3674 (  3992 PWs)   bands (ev):

   -68.5827 -38.3687 -34.6887 -34.6757 -34.6749 -14.8048 -14.7015 -14.7012
    14.8942  15.6886  15.9932  16.1900  16.2949  16.5185  19.2666  19.3075
    20.3555  21.0353

          k = 0.2756 0.2756 0.4593 (  3990 PWs)   bands (ev):

   -68.5821 -38.3616 -34.6960 -34.6759 -34.6746 -14.8592 -14.6975 -14.6929
    15.0691  15.4698  15.9755  16.1431  16.4974  16.9808  18.8506  19.1743
    20.2988  21.3932

          k = 0.2756 0.3674 0.3674 (  3988 PWs)   bands (ev):

   -68.5817 -38.3565 -34.6898 -34.6876 -34.6743 -14.7954 -14.7912 -14.6924
    15.1633  15.5586  16.0452  16.1548  16.4085  16.6558  19.0914  19.0981
    20.6740  21.2435

          k = 0.2756 0.3674 0.4593 (  3992 PWs)   bands (ev):

   -68.5811 -38.3493 -34.6966 -34.6889 -34.6737 -14.8475 -14.7866 -14.6871
    15.1189  15.4738  16.0042  16.0722  16.7140  17.0848  18.7462  19.0049
    20.7396  21.5854

          k = 0.2756 0.4593 0.4593 (  4000 PWs)   bands (ev):

   -68.5805 -38.3420 -34.6971 -34.6968 -34.6728 -14.8407 -14.8401 -14.6822
    15.0364  15.4340  15.9367  15.9682  17.2563  17.2798  18.5657  18.8407
    20.9267  21.8912

          k = 0.3674 0.3674 0.3674 (  3999 PWs)   bands (ev):

   -68.5807 -38.3449 -34.6879 -34.6879 -34.6874 -14.7846 -14.7846 -14.7844
    15.5353  15.9435  16.0032  16.0032  16.3985  16.3985  18.9126  18.9126
    21.2492  21.2492

          k = 0.3674 0.3674 0.4593 (  4008 PWs)   bands (ev):

   -68.5801 -38.3379 -34.6957 -34.6875 -34.6868 -14.8387 -14.7806 -14.7779
    15.5344  15.7246  16.0407  16.1771  16.4038  16.7614  18.6453  18.8314
    21.2625  21.6813

          k = 0.3674 0.4593 0.4593 (  3994 PWs)   bands (ev):

   -68.5795 -38.3311 -34.6951 -34.6951 -34.6861 -14.8336 -14.8336 -14.7749
    15.6466  15.8154  15.9467  16.0669  16.6954  16.7448  18.5220  18.6935
    21.4957  21.9221

          k = 0.4593 0.4593 0.4593 (  3972 PWs)   bands (ev):

   -68.5789 -38.3246 -34.6941 -34.6940 -34.6940 -14.8297 -14.8297 -14.8291
    15.8922  16.0478  16.0478  16.3529  16.3529  16.3889  18.5116  18.5116
    21.9397  21.9397

     the Fermi energy is    18.2602 ev

!    total energy              =    -448.58425465 Ry
     estimated scf accuracy    <          1.0E-12 Ry
     smearing contrib. (-TS)   =       0.00002027 Ry
     internal energy E=F+TS    =    -448.58427493 Ry

     The total energy is F=E-TS. E is the sum of the following terms:
     one-electron contribution =    -147.20247220 Ry
     hartree contribution      =      90.22554009 Ry
     xc contribution           =     -52.94254460 Ry
     ewald contribution        =    -262.51026730 Ry
     one-center paw contrib.   =     -76.15453091 Ry

     convergence has been achieved in  11 iterations

     negative rho (up, down):  9.568E-04 0.000E+00

     Forces acting on atoms (cartesian axes, Ry/au):

     atom    1 type  1   force =     0.00000000    0.00000000    0.00000000
     atom    2 type  2   force =     0.00000000    0.00000000    0.00000000

     Total force =     0.000000     Total SCF correction =     0.000000


     Computing stress (Cartesian axis) and pressure


     negative rho (up, down):  9.568E-04 0.000E+00
          total   stress  (Ry/bohr**3)                   (kbar)     P=       99.93
   0.00067934   0.00000000   0.00000000           99.93        0.00        0.00
   0.00000000   0.00067934   0.00000000            0.00       99.93        0.00
   0.00000000   0.00000000   0.00067934            0.00        0.00       99.93

     Energy error            =      2.4E-05 Ry
     Gradient error          =      0.0E+00 Ry/Bohr
     Cell gradient error     =      6.6E-02 kbar

     bfgs converged in   3 scf cycles and   2 bfgs steps
     (criteria: energy <  1.0E-04 Ry, force <  1.0E-03 Ry/Bohr, cell <  1.0E-01 kbar)

     End of BFGS Geometry Optimization

     Final enthalpy           =    -448.4713769396 Ry

     File ./TiFe.bfgs deleted, as requested
Begin final coordinates
     new unit-cell volume =    166.04885 a.u.^3 (    24.60590 Ang^3 )
     density =      6.99905 g/cm^3

CELL_PARAMETERS (alat=  5.55330037)
   0.989754441   0.000000000   0.000000000
   0.000000000   0.989754441   0.000000000
   0.000000000   0.000000000   0.989754441

ATOMIC_POSITIONS (crystal)
Fe               0.5000000000        0.5000000000        0.5000000000
Ti               0.0000000000        0.0000000000        0.0000000000
End final coordinates



     Writing config-only to output data dir ./TiFe.save/ :
     XML data file

     Final scf calculation at the relaxed structure.
     The G-vectors are recalculated for the final unit cell
     Results may differ from those at the preceding step.

     Parallelization info
     --------------------
     sticks:   dense  smooth     PW     G-vecs:    dense   smooth      PW
     Min         523     150     43                25353     3886     617
     Max         524     151     44                25356     3889     620
     Sum        4189    1201    349               202837    31103    4945

     Using Slab Decomposition



     bravais-lattice index     =            0
     lattice parameter (alat)  =       5.5533  a.u.
     unit-cell volume          =     166.0488 (a.u.)^3
     number of atoms/cell      =            2
     number of atomic types    =            2
     number of electrons       =        28.00
     number of Kohn-Sham states=           18
     kinetic-energy cutoff     =     124.0000  Ry
     charge density cutoff     =    1736.0000  Ry
     scf convergence threshold =      1.0E-10
     mixing beta               =       0.7000
     number of iterations used =            8  plain     mixing
     press convergence thresh. =      1.0E-01
     Exchange-correlation= PBE
                           (   1   4   3   4   0   0   0)

     celldm(1)=   5.553300  celldm(2)=   0.000000  celldm(3)=   0.000000
     celldm(4)=   0.000000  celldm(5)=   0.000000  celldm(6)=   0.000000

     crystal axes: (cart. coord. in units of alat)
               a(1) = (   0.989754   0.000000   0.000000 )  
               a(2) = (   0.000000   0.989754   0.000000 )  
               a(3) = (   0.000000   0.000000   0.989754 )  

     reciprocal axes: (cart. coord. in units 2 pi/alat)
               b(1) = (  1.010352  0.000000  0.000000 )  
               b(2) = (  0.000000  1.010352  0.000000 )  
               b(3) = (  0.000000  0.000000  1.010352 )  


     PseudoPot. # 1 for Fe read from file:
     ../../pseudos/Fe.pbe-spn-kjpaw_psl.0.2.1.UPF
     MD5 check sum: e86618425769142926afa95317d90200
     Pseudo is Projector augmented-wave + core cor, Zval = 16.0
     Generated using "atomic" code by A. Dal Corso  v.5.0.99 svn rev. 10869
     Shape of augmentation charge: PSQ
     Using radial grid of 1191 points,  6 beta functions with: 
                l(1) =   0
                l(2) =   0
                l(3) =   1
                l(4) =   1
                l(5) =   2
                l(6) =   2
     Q(r) pseudized with 0 coefficients 


     PseudoPot. # 2 for Ti read from file:
     ../../pseudos/ti_pbe_v1.4.uspp.F.UPF
     MD5 check sum: 88a00a6731bd790ddea75d31a80cb452
     Pseudo is Ultrasoft + core correction, Zval = 12.0
     Generated by new atomic code, or converted to UPF format
     Using radial grid of  851 points,  6 beta functions with: 
[...]
     estimated scf accuracy    <       0.00000164 Ry

     iteration # 25     ecut=   124.00 Ry     beta= 0.70
     Davidson diagonalization with overlap
     ethr =  5.87E-09,  avg # of iterations =  2.0

     negative rho (up, down):  9.557E-04 0.000E+00

     total cpu time spent up to now is       82.6 secs

     total energy              =    -448.58420192 Ry
     estimated scf accuracy    <       0.00000674 Ry

     iteration # 26     ecut=   124.00 Ry     beta= 0.70
     Davidson diagonalization with overlap
     ethr =  5.87E-09,  avg # of iterations =  1.0

     negative rho (up, down):  9.557E-04 0.000E+00

     total cpu time spent up to now is       83.4 secs

     total energy              =    -448.58420199 Ry
     estimated scf accuracy    <       0.00000357 Ry

     iteration # 27     ecut=   124.00 Ry     beta= 0.70
     Davidson diagonalization with overlap
     ethr =  5.87E-09,  avg # of iterations =  1.0

     negative rho (up, down):  9.562E-04 0.000E+00

     total cpu time spent up to now is       84.3 secs

     total energy              =    -448.58420110 Ry
     estimated scf accuracy    <       0.00000407 Ry

     iteration # 28     ecut=   124.00 Ry     beta= 0.70
     Davidson diagonalization with overlap
     ethr =  5.87E-09,  avg # of iterations =  2.7

     negative rho (up, down):  9.563E-04 0.000E+00

     total cpu time spent up to now is       85.1 secs

     total energy              =    -448.58420147 Ry
     estimated scf accuracy    <       0.00000101 Ry

     iteration # 29     ecut=   124.00 Ry     beta= 0.70
     Davidson diagonalization with overlap
     ethr =  3.60E-09,  avg # of iterations =  1.0

     negative rho (up, down):  9.564E-04 0.000E+00

     total cpu time spent up to now is       85.8 secs

     total energy              =    -448.58420155 Ry
     estimated scf accuracy    <       0.00000011 Ry

     iteration # 30     ecut=   124.00 Ry     beta= 0.70
     Davidson diagonalization with overlap
     ethr =  4.07E-10,  avg # of iterations =  2.1

     negative rho (up, down):  9.564E-04 0.000E+00

     total cpu time spent up to now is       86.7 secs

     total energy              =    -448.58420156 Ry
     estimated scf accuracy    <          4.8E-09 Ry

     iteration # 31     ecut=   124.00 Ry     beta= 0.70
     Davidson diagonalization with overlap
     ethr =  1.70E-11,  avg # of iterations =  3.9

     negative rho (up, down):  9.564E-04 0.000E+00

     total cpu time spent up to now is       87.7 secs

     total energy              =    -448.58420157 Ry
     estimated scf accuracy    <          2.0E-10 Ry

     iteration # 32     ecut=   124.00 Ry     beta= 0.70
     Davidson diagonalization with overlap
     ethr =  7.30E-13,  avg # of iterations =  4.2

     negative rho (up, down):  9.564E-04 0.000E+00

     total cpu time spent up to now is       88.7 secs

     End of self-consistent calculation

          k = 0.0000 0.0000 0.0000 (  3887 PWs)   bands (ev):

   -68.5906 -38.4485 -34.6530 -34.6530 -34.6530 -14.5331 -14.5331 -14.5331
    10.6985  14.3365  14.3365  17.2578  17.2578  17.2578  19.6881  19.6881
    21.7105  21.7105

          k = 0.0000 0.0000 0.0919 (  3867 PWs)   bands (ev):

   -68.5903 -38.4462 -34.6557 -34.6526 -34.6526 -14.5658 -14.5312 -14.5312
    10.8765  14.4226  14.4326  17.2446  17.2446  17.2972  19.5767  19.7304
    21.4478  21.4478

          k = 0.0000 0.0000 0.1837 (  3871 PWs)   bands (ev):

   -68.5894 -38.4400 -34.6629 -34.6514 -34.6514 -14.6527 -14.5261 -14.5261
    11.3918  14.6747  14.6835  17.2148  17.2148  17.4078  19.2550  19.8276
    20.8375  20.8375

          k = 0.0000 0.0000 0.2756 (  3864 PWs)   bands (ev):

   -68.5883 -38.4320 -34.6723 -34.6498 -34.6498 -14.7651 -14.5194 -14.5194
    12.1887  14.9761  15.0721  17.1902  17.1902  17.5651  18.7632  19.8715
    20.1626  20.1626

          k = 0.0000 0.0000 0.3674 (  3876 PWs)   bands (ev):

   -68.5872 -38.4246 -34.6808 -34.6483 -34.6483 -14.8669 -14.5133 -14.5133
    13.1659  15.1213  15.5653  17.1870  17.1870  17.7255  18.1801  19.6098
    19.6098  19.6887

          k = 0.0000 0.0000 0.4593 (  3896 PWs)   bands (ev):

   -68.5866 -38.4202 -34.6859 -34.6475 -34.6475 -14.9268 -14.5097 -14.5097
    14.1401  14.8920  16.0095  17.1979  17.1979  17.6810  17.8301  19.2965
    19.2965  19.3732

          k = 0.0000 0.0919 0.0919 (  3861 PWs)   bands (ev):

   -68.5899 -38.4437 -34.6569 -34.6539 -34.6521 -14.5672 -14.5599 -14.5292
    11.0506  14.5065  14.5272  17.1579  17.2234  17.3985  19.5609  19.6996
    21.1590  21.1859

          k = 0.0000 0.0919 0.1837 (  3865 PWs)   bands (ev):

   -68.5891 -38.4371 -34.6637 -34.6538 -34.6509 -14.6500 -14.5572 -14.5239
    11.5540  14.7350  14.7891  17.0738  17.1718  17.5221  19.3133  19.7845
    20.5922  20.6250

          k = 0.0000 0.0919 0.2756 (  3876 PWs)   bands (ev):

   -68.5879 -38.4285 -34.6732 -34.6530 -34.6494 -14.7611 -14.5496 -14.5169
    12.3286  15.0323  15.1540  17.0291  17.1143  17.6113  18.8944  19.7606
    20.0704  20.1027

          k = 0.0000 0.0919 0.3674 (  3872 PWs)   bands (ev):

   -68.5869 -38.4206 -34.6819 -34.6523 -34.6480 -14.8618 -14.5425 -14.5104
    13.2700  15.1715  15.6034  17.0369  17.0620  17.6167  18.4172  19.3308
    19.7547  19.9261

          k = 0.0000 0.0919 0.4593 (  3884 PWs)   bands (ev):

   -68.5863 -38.4158 -34.6871 -34.6518 -34.6471 -14.9211 -14.5383 -14.5066
    14.1961  14.9367  16.0065  16.9894  17.0781  17.5572  18.0770  19.0291
    19.6159  19.7312

          k = 0.0000 0.1837 0.1837 (  3876 PWs)   bands (ev):

   -68.5882 -38.4293 -34.6674 -34.6588 -34.6498 -14.6516 -14.6311 -14.5178
    12.0182  14.8888  15.0830  16.8909  17.0740  17.6043  19.3693  19.7406
    20.0545  20.2850

          k = 0.0000 0.1837 0.2756 (  3861 PWs)   bands (ev):

   -68.5871 -38.4191 -34.6759 -34.6614 -34.6483 -14.7507 -14.6295 -14.5100
    12.7161  15.0701  15.4810  16.7643  16.9824  17.5253  19.1846  19.4898
    19.9076  20.0987

          k = 0.0000 0.1837 0.3674 (  3873 PWs)   bands (ev):

   -68.5860 -38.4097 -34.6849 -34.6628 -34.6469 -14.8482 -14.6202 -14.5027
    13.5278  15.1319  15.8835  16.7277  16.9562  17.3044  18.8672  19.1392
    20.0472  20.1215

          k = 0.0000 0.1837 0.4593 (  3885 PWs)   bands (ev):

   -68.5854 -38.4042 -34.6904 -34.6634 -34.6461 -14.9057 -14.6146 -14.4984
    14.2661  14.9286  16.1709  16.7832  16.9971  17.0735  18.6907  18.8865
    20.0794  20.2247

          k = 0.0000 0.2756 0.2756 (  3862 PWs)   bands (ev):

   -68.5860 -38.4068 -34.6811 -34.6708 -34.6469 -14.7470 -14.7229 -14.5009
    13.2546  15.0526  15.9555  16.5462  16.9420  17.2449  19.2593  19.4237
    19.8075  20.2811

          k = 0.0000 0.2756 0.3674 (  3874 PWs)   bands (ev):

   -68.5849 -38.3955 -34.6890 -34.6763 -34.6456 -14.8304 -14.7206 -14.4925
    13.7962  14.9437  16.4223  16.4320  16.9044  17.1162  19.0718  19.4035
    19.9897  20.5712

          k = 0.0000 0.2756 0.4593 (  3872 PWs)   bands (ev):

   -68.5843 -38.3888 -34.6947 -34.6785 -34.6448 -14.8855 -14.7133 -14.4876
    14.1896  14.7709  16.4466  16.6281  16.6789  17.4919  18.8218  19.3543
    20.2222  20.8314

          k = 0.0000 0.3674 0.3674 (  3868 PWs)   bands (ev):

   -68.5839 -38.3824 -34.6938 -34.6877 -34.6443 -14.8199 -14.8060 -14.4832
    13.9561  14.7330  16.2368  16.5409  17.0552  17.5451  19.2107  19.7775
    19.8233  20.9952

          k = 0.0000 0.3674 0.4593 (  3873 PWs)   bands (ev):

   -68.5833 -38.3746 -34.6988 -34.6924 -34.6436 -14.8669 -14.8028 -14.4776
    14.0153  14.5967  16.1832  16.2896  17.4424  18.2154  18.9664  19.8450
    20.0507  21.3132

          k = 0.0000 0.4593 0.4593 (  3872 PWs)   bands (ev):

   -68.5827 -38.3661 -34.7014 -34.7005 -34.6429 -14.8567 -14.8548 -14.4717
    13.8903  14.4936  16.0568  16.0925  18.1593  18.6669  19.3822  19.5756
    20.1188  21.5978

          k = 0.0919 0.0919 0.0919 (  3863 PWs)   bands (ev):

   -68.5896 -38.4411 -34.6564 -34.6564 -34.6523 -14.5679 -14.5579 -14.5579
    11.2216  14.6046  14.6046  17.1345  17.1345  17.4804  19.6160  19.6160
    20.7226  21.4264

          k = 0.0919 0.0919 0.1837 (  3870 PWs)   bands (ev):

   -68.5888 -38.4341 -34.6640 -34.6552 -34.6522 -14.6473 -14.5568 -14.5528
    11.7148  14.8300  14.8591  17.0190  17.0729  17.5675  19.3751  19.7444
    20.2274  20.8136

          k = 0.0919 0.0919 0.2756 (  3883 PWs)   bands (ev):

   -68.5876 -38.4250 -34.6738 -34.6536 -34.6520 -14.7572 -14.5479 -14.5460
    12.4702  15.1463  15.1799  16.9589  16.9893  17.5625  19.0120  19.6989
    20.0271  20.1497

          k = 0.0919 0.0919 0.3674 (  3875 PWs)   bands (ev):

   -68.5866 -38.4166 -34.6828 -34.6521 -34.6517 -14.8570 -14.5397 -14.5396
    13.3806  15.2599  15.6031  16.8860  16.9932  17.4709  18.6074  19.4105
    19.6215  20.1350

          k = 0.0919 0.0919 0.4593 (  3880 PWs)   bands (ev):

   -68.5860 -38.4116 -34.6882 -34.6516 -34.6512 -14.9156 -14.5360 -14.5346
    14.2656  15.0047  15.9741  16.7563  17.1170  17.3754  18.3185  19.1222
    19.3318  20.2473

          k = 0.0919 0.1837 0.1837 (  3873 PWs)   bands (ev):

   -68.5879 -38.4261 -34.6669 -34.6599 -34.6524 -14.6480 -14.6291 -14.5482
    12.1744  14.9985  15.1349  16.8526  16.9598  17.5302  19.4428  19.7103
    19.9339  20.5167

          k = 0.0919 0.1837 0.2756 (  3878 PWs)   bands (ev):

   -68.5868 -38.4156 -34.6759 -34.6618 -34.6518 -14.7469 -14.6268 -14.5398
    12.8626  15.1945  15.5007  16.7193  16.8598  17.3394  19.2802  19.6176
    19.9431  20.1627

          k = 0.0919 0.1837 0.3674 (  3874 PWs)   bands (ev):

   -68.5857 -38.4059 -34.6853 -34.6625 -34.6510 -14.8439 -14.6174 -14.5320
    13.6567  15.2654  15.8339  16.6446  16.8555  17.1459  19.0277  19.2617
    19.8020  20.4446

          k = 0.0919 0.1837 0.4593 (  3876 PWs)   bands (ev):

   -68.5851 -38.4001 -34.6910 -34.6630 -34.6504 -14.9010 -14.6118 -14.5273
    14.3719  15.0442  16.0672  16.5799  16.9580  17.0948  18.8488  18.9616
    19.5933  20.8551

          k = 0.0919 0.2756 0.2756 (  3873 PWs)   bands (ev):

   -68.5856 -38.4032 -34.6806 -34.6713 -34.6508 -14.7426 -14.7209 -14.5305
    13.4063  15.1820  15.9651  16.5068  16.8033  17.0242  19.3822  19.5855
    19.7894  20.4248

          k = 0.0919 0.2756 0.3674 (  3873 PWs)   bands (ev):

   -68.5846 -38.3918 -34.6889 -34.6762 -34.6497 -14.8268 -14.7180 -14.5219
    13.9447  15.0744  16.3457  16.3990  16.7875  16.9716  19.1580  19.4976
    19.8652  20.8583

          k = 0.0919 0.2756 0.4593 (  3861 PWs)   bands (ev):

   -68.5840 -38.3850 -34.6948 -34.6781 -34.6490 -14.8818 -14.7108 -14.5167
    14.3231  14.9020  16.3595  16.4183  16.7501  17.3917  18.8618  19.4629
    19.7958  21.3624

          k = 0.0919 0.3674 0.3674 (  3877 PWs)   bands (ev):

   -68.5836 -38.3788 -34.6932 -34.6877 -34.6485 -14.8165 -14.8039 -14.5126
    14.1063  14.8631  16.2057  16.4487  17.0117  17.3636  19.1688  19.6951
    19.8818  21.3250

          k = 0.0919 0.3674 0.4593 (  3869 PWs)   bands (ev):

   -68.5830 -38.3711 -34.6984 -34.6919 -34.6478 -14.8642 -14.8006 -14.5070
    14.1556  14.7303  16.1503  16.2371  17.3667  18.0301  18.9189  19.6592
    19.9797  21.5628

          k = 0.0919 0.4593 0.4593 (  3879 PWs)   bands (ev):

   -68.5824 -38.3628 -34.7008 -34.7000 -34.6470 -14.8545 -14.8527 -14.5013
    14.0315  14.6275  16.0343  16.0655  18.1015  18.5268  19.1075  19.2174
    20.1991  21.7946

          k = 0.1837 0.1837 0.1837 (  3863 PWs)   bands (ev):

   -68.5870 -38.4174 -34.6656 -34.6656 -34.6569 -14.6436 -14.6237 -14.6237
    12.6177  15.2819  15.2819  16.7504  16.7504  17.2569  19.6213  19.6213
    19.9963  20.7706

          k = 0.1837 0.1837 0.2756 (  3861 PWs)   bands (ev):

   -68.5859 -38.4060 -34.6762 -34.6638 -34.6595 -14.7370 -14.6221 -14.6166
    13.2695  15.4983  15.5775  16.6085  16.6140  16.9282  19.4862  19.7077
    20.1335  20.3177

          k = 0.1837 0.1837 0.3674 (  3866 PWs)   bands (ev):

   -68.5849 -38.3955 -34.6866 -34.6623 -34.6614 -14.8323 -14.6101 -14.6098
    13.9916  15.5710  15.7391  16.4713  16.6491  16.8524  19.3433  19.4415
    19.6378  20.9058

          k = 0.1837 0.1837 0.4593 (  3874 PWs)   bands (ev):

   -68.5843 -38.3892 -34.6928 -34.6624 -34.6613 -14.8885 -14.6063 -14.6024
    14.6007  15.2559  15.9312  16.3506  16.7745  17.0497  19.0186  19.2612
    19.3564  21.2847

          k = 0.1837 0.2756 0.2756 (  3876 PWs)   bands (ev):

   -68.5848 -38.3934 -34.6792 -34.6727 -34.6611 -14.7311 -14.7154 -14.6094
    13.8302  15.5346  15.9863  16.4057  16.4921  16.5757  19.5154  19.7100
    20.0260  20.8206

          k = 0.1837 0.2756 0.3674 (  3871 PWs)   bands (ev):

   -68.5838 -38.3818 -34.6886 -34.6759 -34.6607 -14.8172 -14.7109 -14.6001
    14.3571  15.4165  16.1344  16.2904  16.5604  16.6751  19.2754  19.5336
    19.9130  21.1259

          k = 0.1837 0.2756 0.4593 (  3865 PWs)   bands (ev):

   -68.5832 -38.3749 -34.6953 -34.6768 -34.6603 -14.8721 -14.7041 -14.5945
    14.6826  15.2233  16.0996  16.2384  16.6574  17.1559  18.9099  19.3614
    19.8170  21.3589

          k = 0.1837 0.3674 0.3674 (  3879 PWs)   bands (ev):

   -68.5828 -38.3692 -34.6917 -34.6876 -34.6596 -14.8074 -14.7984 -14.5910
    14.5348  15.2017  16.1284  16.2513  16.8765  16.9154  19.1412  19.3921
    20.1899  21.2957

          k = 0.1837 0.3674 0.4593 (  3872 PWs)   bands (ev):

   -68.5822 -38.3617 -34.6976 -34.6906 -34.6590 -14.8570 -14.7946 -14.5855
    14.5537  15.0787  16.0722  16.1239  17.1145  17.5706  18.8541  19.2257
    20.2704  21.5493

          k = 0.1837 0.4593 0.4593 (  3872 PWs)   bands (ev):

   -68.5815 -38.3538 -34.6991 -34.6985 -34.6581 -14.8485 -14.8473 -14.5801
    14.4357  14.9843  15.9816  16.0047  17.8215  17.9439  18.7418  18.9252
    20.4697  21.8525

          k = 0.2756 0.2756 0.2756 (  3860 PWs)   bands (ev):

   -68.5837 -38.3805 -34.6773 -34.6773 -34.6719 -14.7192 -14.7081 -14.7081
    14.4128  16.0006  16.0006  16.0767  16.2852  16.2852  19.5274  19.5274
    20.5159  20.5159

          k = 0.2756 0.2756 0.3674 (  3870 PWs)   bands (ev):

   -68.5827 -38.3687 -34.6886 -34.6755 -34.6747 -14.8048 -14.7015 -14.7012
    14.8942  15.6886  15.9932  16.1900  16.2949  16.5186  19.2667  19.3076
    20.3555  21.0353

          k = 0.2756 0.2756 0.4593 (  3866 PWs)   bands (ev):

   -68.5821 -38.3616 -34.6959 -34.6758 -34.6745 -14.8592 -14.6975 -14.6930
    15.0691  15.4698  15.9755  16.1431  16.4974  16.9808  18.8506  19.1743
    20.2988  21.3932

          k = 0.2756 0.3674 0.3674 (  3876 PWs)   bands (ev):

   -68.5817 -38.3565 -34.6896 -34.6875 -34.6742 -14.7955 -14.7912 -14.6924
    15.1634  15.5586  16.0453  16.1548  16.4085  16.6558  19.0914  19.0981
    20.6741  21.2436

          k = 0.2756 0.3674 0.4593 (  3864 PWs)   bands (ev):

   -68.5811 -38.3493 -34.6965 -34.6888 -34.6736 -14.8475 -14.7866 -14.6871
    15.1189  15.4739  16.0042  16.0722  16.7140  17.0849  18.7462  19.0049
    20.7396  21.5854

          k = 0.2756 0.4593 0.4593 (  3877 PWs)   bands (ev):

   -68.5805 -38.3420 -34.6970 -34.6967 -34.6727 -14.8407 -14.8402 -14.6822
    15.0364  15.4340  15.9367  15.9682  17.2564  17.2798  18.5658  18.8408
    20.9267  21.8913

          k = 0.3674 0.3674 0.3674 (  3884 PWs)   bands (ev):

   -68.5807 -38.3449 -34.6878 -34.6878 -34.6873 -14.7846 -14.7846 -14.7844
    15.5353  15.9435  16.0032  16.0032  16.3985  16.3985  18.9126  18.9126
    21.2493  21.2493

          k = 0.3674 0.3674 0.4593 (  3861 PWs)   bands (ev):

   -68.5801 -38.3379 -34.6955 -34.6874 -34.6866 -14.8388 -14.7806 -14.7780
    15.5344  15.7246  16.0408  16.1772  16.4038  16.7615  18.6453  18.8314
    21.2626  21.6813

          k = 0.3674 0.4593 0.4593 (  3877 PWs)   bands (ev):

   -68.5795 -38.3311 -34.6950 -34.6950 -34.6860 -14.8336 -14.8336 -14.7749
    15.6466  15.8155  15.9467  16.0669  16.6955  16.7449  18.5220  18.6935
    21.4957  21.9221

          k = 0.4593 0.4593 0.4593 (  3876 PWs)   bands (ev):

   -68.5789 -38.3247 -34.6940 -34.6939 -34.6939 -14.8297 -14.8297 -14.8291
    15.8922  16.0478  16.0478  16.3529  16.3529  16.3889  18.5116  18.5116
    21.9397  21.9397

     the Fermi energy is    18.2602 ev

!    total energy              =    -448.58420157 Ry
     estimated scf accuracy    <          9.4E-12 Ry
     smearing contrib. (-TS)   =       0.00002025 Ry
     internal energy E=F+TS    =    -448.58422182 Ry

     The total energy is F=E-TS. E is the sum of the following terms:
     one-electron contribution =    -147.20257583 Ry
     hartree contribution      =      90.22564590 Ry
     xc contribution           =     -52.94250164 Ry
     ewald contribution        =    -262.51026730 Ry
     one-center paw contrib.   =     -76.15452294 Ry

     convergence has been achieved in  32 iterations

     negative rho (up, down):  9.564E-04 0.000E+00

     Forces acting on atoms (cartesian axes, Ry/au):

     atom    1 type  1   force =     0.00000000    0.00000000    0.00000000
     atom    2 type  2   force =     0.00000000    0.00000000    0.00000000

     Total force =     0.000000     Total SCF correction =     0.000000


     Computing stress (Cartesian axis) and pressure


     negative rho (up, down):  9.564E-04 0.000E+00
          total   stress  (Ry/bohr**3)                   (kbar)     P=       99.70
   0.00067773   0.00000000   0.00000000           99.70        0.00        0.00
   0.00000000   0.00067773   0.00000000            0.00       99.70        0.00
   0.00000000   0.00000000   0.00067773            0.00        0.00       99.70


     Writing all to output data dir ./TiFe.save/ :
     XML data file, charge density, pseudopotentials, collected wavefunctions

     init_run     :      1.59s CPU      1.88s WALL (       2 calls)
     electrons    :     74.76s CPU     81.18s WALL (       4 calls)
     update_pot   :      0.17s CPU      0.23s WALL (       2 calls)
     forces       :      0.94s CPU      1.13s WALL (       4 calls)
     stress       :      4.62s CPU      4.89s WALL (       4 calls)

     Called by init_run:
     wfcinit      :      0.49s CPU      0.57s WALL (       2 calls)
     potinit      :      0.44s CPU      0.54s WALL (       2 calls)
     hinit0       :      0.37s CPU      0.41s WALL (       2 calls)

     Called by electrons:
     c_bands      :     42.67s CPU     45.00s WALL (      86 calls)
     sum_band     :     17.44s CPU     19.33s WALL (      86 calls)
     v_of_rho     :      1.84s CPU      2.36s WALL (      89 calls)
     newd         :      8.82s CPU     10.23s WALL (      89 calls)
     PAW_pot      :      4.29s CPU      4.48s WALL (      91 calls)
     mix_rho      :      0.22s CPU      0.27s WALL (      86 calls)

     Called by c_bands:
     init_us_2    :      1.10s CPU      1.17s WALL (   10304 calls)
     cegterg      :     40.86s CPU     43.09s WALL (    4816 calls)

     Called by *egterg:
     cdiaghg      :      4.80s CPU      5.09s WALL (   18461 calls)
     h_psi        :     30.98s CPU     32.76s WALL (   18741 calls)
     s_psi        :      0.87s CPU      0.92s WALL (   18741 calls)
     g_psi        :      0.16s CPU      0.16s WALL (   13813 calls)

     Called by h_psi:
     h_psi:calbec :      1.23s CPU      1.31s WALL (   18741 calls)
     vloc_psi     :     28.67s CPU     30.31s WALL (   18741 calls)
     add_vuspsi   :      0.91s CPU      0.97s WALL (   18741 calls)

     General routines
     calbec       :      1.94s CPU      2.05s WALL (   27477 calls)
     fft          :      1.76s CPU      2.57s WALL (    1252 calls)
     ffts         :      0.29s CPU      0.33s WALL (     175 calls)
     fftw         :     27.95s CPU     29.55s WALL (  538654 calls)
     interpolate  :      0.40s CPU      0.45s WALL (      89 calls)

     Parallel routines

     PWSCF        :     82.71s CPU     90.61s WALL


   This run was terminated on:  21:50:15  25Oct2025            

=------------------------------------------------------------------------------=
   JOB DONE.
=------------------------------------------------------------------------------=
