
     Program PWSCF v.7.4 starts on 25Oct2025 at  0:45: 8 

     This program is part of the open-source Quantum ESPRESSO suite
     for quantum simulation of materials; please cite
         "P. Giannozzi et al., J. Phys.:Condens. Matter 21 395502 (2009);
         "P. Giannozzi et al., J. Phys.:Condens. Matter 29 465901 (2017);
         "P. Giannozzi et al., J. Chem. Phys. 152 154105 (2020);
          URL http://www.quantum-espresso.org", 
     in publications or presentations arising from this work. More details at
     http://www.quantum-espresso.org/quote

     Parallel version (MPI & OpenMP), running on       8 processor cores
     Number of MPI processes:                 8
     Threads/MPI process:                     1

     MPI processes distributed on     1 nodes
     210448 MiB available memory on the printing compute node when the environment starts

     Reading input from TiFe_18.in

     Current dimensions of program PWSCF are:
     Max number of different atomic species (ntypx) = 10
     Max number of k-points (npk) =  40000
     Max angular momentum in pseudopotentials (lmaxx) =  4
     file Fe.pbe-spn-kjpaw_psl.0.2.1.UPF: wavefunction(s)  3D renormalized

     IMPORTANT: XC functional enforced from input :
     Exchange-correlation= PBE
                           (   1   4   3   4   0   0   0)
     Any further DFT definition will be discarded
     Please, verify this is what you really want

     Message from routine setup:
     using ibrav=0 with symmetry is DISCOURAGED, use correct ibrav instead

     R & G space division:  proc/nbgrp/npool/nimage =       8
     Subspace diagonalization in iterative solution of the eigenvalue problem:
     a serial algorithm will be used


     Parallelization info
     --------------------
     sticks:   dense  smooth     PW     G-vecs:    dense   smooth      PW
     Min         554     158     46                27780     4234     672
     Max         555     159     48                27782     4237     673
     Sum        4437    1265    373               222247    33881    5377

     Using Slab Decomposition



     bravais-lattice index     =            0
     lattice parameter (alat)  =       5.6667  a.u.
     unit-cell volume          =     181.9646 (a.u.)^3
     number of atoms/cell      =            2
     number of atomic types    =            2
     number of electrons       =        28.00
     number of Kohn-Sham states=           18
     kinetic-energy cutoff     =     124.0000  Ry
     charge density cutoff     =    1736.0000  Ry
     scf convergence threshold =      1.0E-08
     mixing beta               =       0.7000
     number of iterations used =            8  plain     mixing
     Exchange-correlation= PBE
                           (   1   4   3   4   0   0   0)

     celldm(1)=   5.666684  celldm(2)=   0.000000  celldm(3)=   0.000000
     celldm(4)=   0.000000  celldm(5)=   0.000000  celldm(6)=   0.000000

     crystal axes: (cart. coord. in units of alat)
               a(1) = (   1.000000   0.000000   0.000000 )  
               a(2) = (   0.000000   1.000000   0.000000 )  
               a(3) = (   0.000000   0.000000   1.000000 )  

     reciprocal axes: (cart. coord. in units 2 pi/alat)
               b(1) = (  1.000000  0.000000  0.000000 )  
               b(2) = (  0.000000  1.000000  0.000000 )  
               b(3) = (  0.000000  0.000000  1.000000 )  


     PseudoPot. # 1 for Fe read from file:
     ../pseudos/Fe.pbe-spn-kjpaw_psl.0.2.1.UPF
     MD5 check sum: e86618425769142926afa95317d90200
     Pseudo is Projector augmented-wave + core cor, Zval = 16.0
     Generated using "atomic" code by A. Dal Corso  v.5.0.99 svn rev. 10869
     Shape of augmentation charge: PSQ
     Using radial grid of 1191 points,  6 beta functions with: 
                l(1) =   0
                l(2) =   0
                l(3) =   1
                l(4) =   1
                l(5) =   2
                l(6) =   2
     Q(r) pseudized with 0 coefficients 


     PseudoPot. # 2 for Ti read from file:
     ../pseudos/ti_pbe_v1.4.uspp.F.UPF
     MD5 check sum: 88a00a6731bd790ddea75d31a80cb452
     Pseudo is Ultrasoft + core correction, Zval = 12.0
     Generated by new atomic code, or converted to UPF format
     Using radial grid of  851 points,  6 beta functions with: 
                l(1) =   0
                l(2) =   0
                l(3) =   1
                l(4) =   1
                l(5) =   2
                l(6) =   2
     Q(r) pseudized with  6 coefficients,  rinner =    1.000   1.000   1.000
                                                       1.000   1.000

     atomic species   valence    mass     pseudopotential
     Fe               16.00    55.84500     Fe( 1.00)
     Ti               12.00    47.86700     Ti( 1.00)

     48 Sym. Ops., with inversion, found



   Cartesian axes

     site n.     atom                  positions (alat units)
         1        Fe     tau(   1) = (   0.5000000   0.5000000   0.5000000  )
         2        Ti     tau(   2) = (   0.0000000   0.0000000   0.0000000  )

     number of k points=    56  Marzari-Vanderbilt smearing, width (Ry)=  0.0050
                       cart. coord. in units 2pi/alat
        k(    1) = (   0.0000000   0.0000000   0.0000000), wk =   0.0015026
        k(    2) = (   0.0000000   0.0000000   0.0909091), wk =   0.0090158
        k(    3) = (   0.0000000   0.0000000   0.1818182), wk =   0.0090158
        k(    4) = (   0.0000000   0.0000000   0.2727273), wk =   0.0090158
        k(    5) = (   0.0000000   0.0000000   0.3636364), wk =   0.0090158
        k(    6) = (   0.0000000   0.0000000   0.4545455), wk =   0.0090158
        k(    7) = (   0.0000000   0.0909091   0.0909091), wk =   0.0180316
        k(    8) = (   0.0000000   0.0909091   0.1818182), wk =   0.0360631
        k(    9) = (   0.0000000   0.0909091   0.2727273), wk =   0.0360631
        k(   10) = (   0.0000000   0.0909091   0.3636364), wk =   0.0360631
        k(   11) = (   0.0000000   0.0909091   0.4545455), wk =   0.0360631
        k(   12) = (   0.0000000   0.1818182   0.1818182), wk =   0.0180316
        k(   13) = (   0.0000000   0.1818182   0.2727273), wk =   0.0360631
        k(   14) = (   0.0000000   0.1818182   0.3636364), wk =   0.0360631
        k(   15) = (   0.0000000   0.1818182   0.4545455), wk =   0.0360631
        k(   16) = (   0.0000000   0.2727273   0.2727273), wk =   0.0180316
        k(   17) = (   0.0000000   0.2727273   0.3636364), wk =   0.0360631
        k(   18) = (   0.0000000   0.2727273   0.4545455), wk =   0.0360631
        k(   19) = (   0.0000000   0.3636364   0.3636364), wk =   0.0180316
        k(   20) = (   0.0000000   0.3636364   0.4545455), wk =   0.0360631
        k(   21) = (   0.0000000   0.4545455   0.4545455), wk =   0.0180316
        k(   22) = (   0.0909091   0.0909091   0.0909091), wk =   0.0120210
        k(   23) = (   0.0909091   0.0909091   0.1818182), wk =   0.0360631
        k(   24) = (   0.0909091   0.0909091   0.2727273), wk =   0.0360631
        k(   25) = (   0.0909091   0.0909091   0.3636364), wk =   0.0360631
        k(   26) = (   0.0909091   0.0909091   0.4545455), wk =   0.0360631
        k(   27) = (   0.0909091   0.1818182   0.1818182), wk =   0.0360631
        k(   28) = (   0.0909091   0.1818182   0.2727273), wk =   0.0721262
        k(   29) = (   0.0909091   0.1818182   0.3636364), wk =   0.0721262
        k(   30) = (   0.0909091   0.1818182   0.4545455), wk =   0.0721262
        k(   31) = (   0.0909091   0.2727273   0.2727273), wk =   0.0360631
        k(   32) = (   0.0909091   0.2727273   0.3636364), wk =   0.0721262
        k(   33) = (   0.0909091   0.2727273   0.4545455), wk =   0.0721262
        k(   34) = (   0.0909091   0.3636364   0.3636364), wk =   0.0360631
        k(   35) = (   0.0909091   0.3636364   0.4545455), wk =   0.0721262
        k(   36) = (   0.0909091   0.4545455   0.4545455), wk =   0.0360631
        k(   37) = (   0.1818182   0.1818182   0.1818182), wk =   0.0120210
        k(   38) = (   0.1818182   0.1818182   0.2727273), wk =   0.0360631
        k(   39) = (   0.1818182   0.1818182   0.3636364), wk =   0.0360631
        k(   40) = (   0.1818182   0.1818182   0.4545455), wk =   0.0360631
        k(   41) = (   0.1818182   0.2727273   0.2727273), wk =   0.0360631
        k(   42) = (   0.1818182   0.2727273   0.3636364), wk =   0.0721262
        k(   43) = (   0.1818182   0.2727273   0.4545455), wk =   0.0721262
        k(   44) = (   0.1818182   0.3636364   0.3636364), wk =   0.0360631
        k(   45) = (   0.1818182   0.3636364   0.4545455), wk =   0.0721262
        k(   46) = (   0.1818182   0.4545455   0.4545455), wk =   0.0360631
        k(   47) = (   0.2727273   0.2727273   0.2727273), wk =   0.0120210
        k(   48) = (   0.2727273   0.2727273   0.3636364), wk =   0.0360631
        k(   49) = (   0.2727273   0.2727273   0.4545455), wk =   0.0360631
        k(   50) = (   0.2727273   0.3636364   0.3636364), wk =   0.0360631
        k(   51) = (   0.2727273   0.3636364   0.4545455), wk =   0.0721262
        k(   52) = (   0.2727273   0.4545455   0.4545455), wk =   0.0360631
        k(   53) = (   0.3636364   0.3636364   0.3636364), wk =   0.0120210
        k(   54) = (   0.3636364   0.3636364   0.4545455), wk =   0.0360631
        k(   55) = (   0.3636364   0.4545455   0.4545455), wk =   0.0360631
        k(   56) = (   0.4545455   0.4545455   0.4545455), wk =   0.0120210

     Dense  grid:   222247 G-vectors     FFT dimensions: (  75,  75,  75)

     Smooth grid:    33881 G-vectors     FFT dimensions: (  45,  45,  45)

     Estimated max dynamical RAM per process >     116.56 MB

     Estimated total dynamical RAM >     932.48 MB

     Check: negative core charge=   -0.000001

     Initial potential from superposition of free atoms

     starting charge      26.9995, renormalised to      28.0000

     negative rho (up, down):  1.372E-03 0.000E+00
     Starting wfcs are   23 randomized atomic wfcs
     Checking if some PAW data can be deallocated... 

     total cpu time spent up to now is        1.3 secs

     per-process dynamical memory:   136.0 Mb

     Self-consistent Calculation

     iteration #  1     ecut=   124.00 Ry     beta= 0.70
     Davidson diagonalization with overlap
     ethr =  1.00E-02,  avg # of iterations =  2.2

     negative rho (up, down):  1.106E-04 0.000E+00

     total cpu time spent up to now is        2.8 secs

     total energy              =    -433.72765240 Ry
     estimated scf accuracy    <      18.86913159 Ry

     iteration #  2     ecut=   124.00 Ry     beta= 0.70
     Davidson diagonalization with overlap
     ethr =  1.00E-02,  avg # of iterations =  6.1

     negative rho (up, down):  1.722E-05 0.000E+00

     total cpu time spent up to now is        5.2 secs

     total energy              =    -448.27384011 Ry
     estimated scf accuracy    <      71.57986984 Ry

     iteration #  3     ecut=   124.00 Ry     beta= 0.70
     Davidson diagonalization with overlap
     ethr =  1.00E-02,  avg # of iterations =  3.1

     negative rho (up, down):  1.713E-04 0.000E+00

     total cpu time spent up to now is        6.8 secs

     total energy              =    -448.80039018 Ry
     estimated scf accuracy    <      17.86033653 Ry

     iteration #  4     ecut=   124.00 Ry     beta= 0.70
     Davidson diagonalization with overlap
     ethr =  1.00E-02,  avg # of iterations =  2.1

     negative rho (up, down):  2.504E-04 0.000E+00

     total cpu time spent up to now is        8.3 secs

     total energy              =    -449.15434820 Ry
     estimated scf accuracy    <       5.80683008 Ry

     iteration #  5     ecut=   124.00 Ry     beta= 0.70
     Davidson diagonalization with overlap
     ethr =  1.00E-02,  avg # of iterations =  1.0

     negative rho (up, down):  5.509E-04 0.000E+00

     total cpu time spent up to now is        9.5 secs

     total energy              =    -448.83536612 Ry
     estimated scf accuracy    <       4.76971554 Ry

     iteration #  6     ecut=   124.00 Ry     beta= 0.70
     Davidson diagonalization with overlap
     ethr =  1.00E-02,  avg # of iterations =  1.2

     negative rho (up, down):  9.470E-04 0.000E+00

     total cpu time spent up to now is       10.8 secs

     total energy              =    -448.17801614 Ry
     estimated scf accuracy    <       3.72071430 Ry

     iteration #  7     ecut=   124.00 Ry     beta= 0.70
     Davidson diagonalization with overlap
     ethr =  1.00E-02,  avg # of iterations =  2.0

     negative rho (up, down):  1.109E-03 0.000E+00

     total cpu time spent up to now is       12.1 secs

     total energy              =    -448.66231694 Ry
     estimated scf accuracy    <       0.45873896 Ry

     iteration #  8     ecut=   124.00 Ry     beta= 0.70
     Davidson diagonalization with overlap
     ethr =  1.64E-03,  avg # of iterations =  4.9

     negative rho (up, down):  5.080E-04 0.000E+00

     total cpu time spent up to now is       13.7 secs

     total energy              =    -447.63351057 Ry
     estimated scf accuracy    <       7.12496578 Ry

     iteration #  9     ecut=   124.00 Ry     beta= 0.70
     Davidson diagonalization with overlap
     ethr =  1.64E-03,  avg # of iterations =  4.6

     negative rho (up, down):  5.635E-04 0.000E+00

     total cpu time spent up to now is       15.3 secs

     total energy              =    -448.51906555 Ry
     estimated scf accuracy    <       3.05762931 Ry

     iteration # 10     ecut=   124.00 Ry     beta= 0.70
     Davidson diagonalization with overlap
     ethr =  1.64E-03,  avg # of iterations =  2.1

     negative rho (up, down):  8.380E-04 0.000E+00

     total cpu time spent up to now is       16.6 secs

     total energy              =    -448.53604165 Ry
     estimated scf accuracy    <       0.38896581 Ry

     iteration # 11     ecut=   124.00 Ry     beta= 0.70
     Davidson diagonalization with overlap
     ethr =  1.39E-03,  avg # of iterations =  3.0

     negative rho (up, down):  7.359E-04 0.000E+00

     total cpu time spent up to now is       18.0 secs

     total energy              =    -448.62466774 Ry
     estimated scf accuracy    <       0.21867068 Ry

     iteration # 12     ecut=   124.00 Ry     beta= 0.70
     Davidson diagonalization with overlap
     ethr =  7.81E-04,  avg # of iterations =  1.6

     negative rho (up, down):  3.190E-04 0.000E+00

     total cpu time spent up to now is       19.2 secs

     total energy              =    -448.49779890 Ry
     estimated scf accuracy    <       0.69719641 Ry

     iteration # 13     ecut=   124.00 Ry     beta= 0.70
     Davidson diagonalization with overlap
     ethr =  7.81E-04,  avg # of iterations =  4.0

     negative rho (up, down):  1.647E-04 0.000E+00

     total cpu time spent up to now is       20.8 secs

     total energy              =    -448.91572882 Ry
     estimated scf accuracy    <       1.48880560 Ry

     iteration # 14     ecut=   124.00 Ry     beta= 0.70
     Davidson diagonalization with overlap
     ethr =  7.81E-04,  avg # of iterations =  1.5

     negative rho (up, down):  4.585E-04 0.000E+00

     total cpu time spent up to now is       22.1 secs

     total energy              =    -448.68923777 Ry
     estimated scf accuracy    <       2.27398126 Ry

     iteration # 15     ecut=   124.00 Ry     beta= 0.70
     Davidson diagonalization with overlap
     ethr =  7.81E-04,  avg # of iterations =  1.3

     negative rho (up, down):  6.146E-04 0.000E+00

     total cpu time spent up to now is       23.3 secs

     total energy              =    -448.61692776 Ry
     estimated scf accuracy    <       1.14173718 Ry

     iteration # 16     ecut=   124.00 Ry     beta= 0.70
     Davidson diagonalization with overlap
     ethr =  7.81E-04,  avg # of iterations =  2.0

     negative rho (up, down):  8.405E-04 0.000E+00

     total cpu time spent up to now is       24.6 secs

     total energy              =    -448.57399284 Ry
     estimated scf accuracy    <       0.45262519 Ry

     iteration # 17     ecut=   124.00 Ry     beta= 0.70
     Davidson diagonalization with overlap
     ethr =  7.81E-04,  avg # of iterations =  1.9

     negative rho (up, down):  9.936E-04 0.000E+00

     total cpu time spent up to now is       25.9 secs

     total energy              =    -448.57621828 Ry
     estimated scf accuracy    <       0.06061544 Ry

     iteration # 18     ecut=   124.00 Ry     beta= 0.70
     Davidson diagonalization with overlap
     ethr =  2.16E-04,  avg # of iterations =  3.4

     negative rho (up, down):  2.364E-03 0.000E+00

     total cpu time spent up to now is       27.3 secs

     total energy              =    -448.68373043 Ry
     estimated scf accuracy    <       0.01228390 Ry

     iteration # 19     ecut=   124.00 Ry     beta= 0.70
     Davidson diagonalization with overlap
     ethr =  4.39E-05,  avg # of iterations =  8.2

     negative rho (up, down):  2.086E-03 0.000E+00

     total cpu time spent up to now is       29.9 secs

     total energy              =    -449.22340575 Ry
     estimated scf accuracy    <      24.63946314 Ry

     iteration # 20     ecut=   124.00 Ry     beta= 0.70
     Davidson diagonalization with overlap
     ethr =  4.39E-05,  avg # of iterations =  4.9

     negative rho (up, down):  3.590E-04 0.000E+00

     total cpu time spent up to now is       31.6 secs

     total energy              =    -446.72700427 Ry
     estimated scf accuracy    <      17.41954513 Ry

     iteration # 21     ecut=   124.00 Ry     beta= 0.70
     Davidson diagonalization with overlap
     ethr =  4.39E-05,  avg # of iterations =  9.6

     negative rho (up, down):  6.190E-04 0.000E+00

     total cpu time spent up to now is       34.3 secs

     WARNING: integrated charge=    28.00258171, expected=    28.00000000

     total energy              =    -448.60014285 Ry
     estimated scf accuracy    <       1.97267720 Ry

     iteration # 22     ecut=   124.00 Ry     beta= 0.70
     Davidson diagonalization with overlap
     ethr =  4.39E-05,  avg # of iterations =  5.2

     negative rho (up, down):  1.305E-03 0.000E+00

     total cpu time spent up to now is       36.2 secs

     WARNING: integrated charge=    27.99461250, expected=    28.00000000

     total energy              =    -448.46937126 Ry
     estimated scf accuracy    <       0.67734554 Ry

     iteration # 23     ecut=   124.00 Ry     beta= 0.70
     Davidson diagonalization with overlap
     ethr =  4.39E-05,  avg # of iterations =  6.9

     negative rho (up, down):  1.023E-03 0.000E+00

     total cpu time spent up to now is       38.5 secs

     WARNING: integrated charge=    27.99179840, expected=    28.00000000

     total energy              =    -448.55586906 Ry
     estimated scf accuracy    <       1.56397517 Ry

     iteration # 24     ecut=   124.00 Ry     beta= 0.70
     Davidson diagonalization with overlap
     ethr =  4.39E-05,  avg # of iterations =  5.1

     negative rho (up, down):  9.530E-04 0.000E+00

     total cpu time spent up to now is       40.3 secs

     WARNING: integrated charge=    27.99237097, expected=    28.00000000

     total energy              =    -448.58261871 Ry
     estimated scf accuracy    <       0.14989841 Ry

     iteration # 25     ecut=   124.00 Ry     beta= 0.70
     Davidson diagonalization with overlap
     ethr =  4.39E-05,  avg # of iterations =  3.2

     negative rho (up, down):  9.635E-04 0.000E+00

     total cpu time spent up to now is       41.7 secs

     WARNING: integrated charge=    27.99319006, expected=    28.00000000

     total energy              =    -448.58591671 Ry
     estimated scf accuracy    <       0.02315458 Ry

     iteration # 26     ecut=   124.00 Ry     beta= 0.70
     Davidson diagonalization with overlap
     ethr =  4.39E-05,  avg # of iterations =  1.0
     Minimization algorithm failed to find Fermi energy: reverting to bisection
     Possible cause: smearing is larger than the electronic band-gap.

     negative rho (up, down):  7.398E-04 0.000E+00

     total cpu time spent up to now is       42.9 secs

     WARNING: integrated charge=    27.99689764, expected=    28.00000000

     total energy              =    -448.57902492 Ry
     estimated scf accuracy    <       0.02189213 Ry

     iteration # 27     ecut=   124.00 Ry     beta= 0.70
     Davidson diagonalization with overlap
     ethr =  4.39E-05,  avg # of iterations =  4.6

     negative rho (up, down):  1.237E-03 0.000E+00

     total cpu time spent up to now is       44.7 secs

     WARNING: integrated charge=    27.98460269, expected=    28.00000000

     total energy              =    -448.53557654 Ry
     estimated scf accuracy    <       0.12104745 Ry

     iteration # 28     ecut=   124.00 Ry     beta= 0.70
     Davidson diagonalization with overlap
     ethr =  4.39E-05,  avg # of iterations =  6.4

     negative rho (up, down):  9.121E-04 0.000E+00

     total cpu time spent up to now is       46.8 secs

     WARNING: integrated charge=    27.99536162, expected=    28.00000000

     total energy              =    -448.47943076 Ry
     estimated scf accuracy    <       3.09957732 Ry

     iteration # 29     ecut=   124.00 Ry     beta= 0.70
     Davidson diagonalization with overlap
     ethr =  4.39E-05,  avg # of iterations =  5.7

     negative rho (up, down):  1.125E-03 0.000E+00

     total cpu time spent up to now is       48.7 secs

     WARNING: integrated charge=    27.98171545, expected=    28.00000000

     total energy              =    -448.59938654 Ry
     estimated scf accuracy    <       0.05907729 Ry

     iteration # 30     ecut=   124.00 Ry     beta= 0.70
     Davidson diagonalization with overlap
     ethr =  4.39E-05,  avg # of iterations =  4.1

     negative rho (up, down):  6.942E-04 0.000E+00

     total cpu time spent up to now is       50.4 secs

     WARNING: integrated charge=    28.00324679, expected=    28.00000000

     total energy              =    -448.51572739 Ry
     estimated scf accuracy    <       0.54670898 Ry

     iteration # 31     ecut=   124.00 Ry     beta= 0.70
     Davidson diagonalization with overlap
     ethr =  4.39E-05,  avg # of iterations =  5.4

     negative rho (up, down):  7.976E-04 0.000E+00

     total cpu time spent up to now is       52.4 secs

     WARNING: integrated charge=    27.99742084, expected=    28.00000000

     total energy              =    -448.58843921 Ry
     estimated scf accuracy    <       0.23059995 Ry

     iteration # 32     ecut=   124.00 Ry     beta= 0.70
     Davidson diagonalization with overlap
     ethr =  4.39E-05,  avg # of iterations =  3.0

     negative rho (up, down):  8.090E-04 0.000E+00

     total cpu time spent up to now is       53.7 secs

     WARNING: integrated charge=    27.99828197, expected=    28.00000000

     total energy              =    -448.59023564 Ry
     estimated scf accuracy    <       0.07261109 Ry

     iteration # 33     ecut=   124.00 Ry     beta= 0.70
     Davidson diagonalization with overlap
     ethr =  4.39E-05,  avg # of iterations =  1.0

     negative rho (up, down):  8.710E-04 0.000E+00

     total cpu time spent up to now is       54.9 secs

     WARNING: integrated charge=    28.00075479, expected=    28.00000000

     total energy              =    -448.58557298 Ry
     estimated scf accuracy    <       0.06283327 Ry

     iteration # 34     ecut=   124.00 Ry     beta= 0.70
     Davidson diagonalization with overlap
     ethr =  4.39E-05,  avg # of iterations =  1.7

     negative rho (up, down):  8.988E-04 0.000E+00

     total cpu time spent up to now is       56.2 secs

     WARNING: integrated charge=    28.00042307, expected=    28.00000000

     total energy              =    -448.58541649 Ry
     estimated scf accuracy    <       0.02507750 Ry

     iteration # 35     ecut=   124.00 Ry     beta= 0.70
     Davidson diagonalization with overlap
     ethr =  4.39E-05,  avg # of iterations =  1.1

     negative rho (up, down):  8.785E-04 0.000E+00

     total cpu time spent up to now is       57.5 secs

     WARNING: integrated charge=    28.00037560, expected=    28.00000000

     total energy              =    -448.58615722 Ry
     estimated scf accuracy    <       0.01480237 Ry

     iteration # 36     ecut=   124.00 Ry     beta= 0.70
     Davidson diagonalization with overlap
     ethr =  4.39E-05,  avg # of iterations =  1.0

     negative rho (up, down):  1.023E-03 0.000E+00

     total cpu time spent up to now is       58.7 secs

     WARNING: integrated charge=    27.99983690, expected=    28.00000000

     total energy              =    -448.58231969 Ry
     estimated scf accuracy    <       0.01834230 Ry

     iteration # 37     ecut=   124.00 Ry     beta= 0.70
     Davidson diagonalization with overlap
     ethr =  4.39E-05,  avg # of iterations =  3.5

     negative rho (up, down):  9.834E-04 0.000E+00

     total cpu time spent up to now is       60.1 secs

     WARNING: integrated charge=    27.99993754, expected=    28.00000000

     total energy              =    -448.58455902 Ry
     estimated scf accuracy    <       0.00185373 Ry

     iteration # 38     ecut=   124.00 Ry     beta= 0.70
     Davidson diagonalization with overlap
     ethr =  6.62E-06,  avg # of iterations =  2.2

     negative rho (up, down):  9.750E-04 0.000E+00

     total cpu time spent up to now is       61.4 secs

     WARNING: integrated charge=    28.00183549, expected=    28.00000000

     total energy              =    -448.58185381 Ry
     estimated scf accuracy    <       0.00027883 Ry

     iteration # 39     ecut=   124.00 Ry     beta= 0.70
     Davidson diagonalization with overlap
     ethr =  9.96E-07,  avg # of iterations =  3.4

     negative rho (up, down):  9.759E-04 0.000E+00

     total cpu time spent up to now is       62.8 secs

     WARNING: integrated charge=    28.00151992, expected=    28.00000000

     total energy              =    -448.58332323 Ry
     estimated scf accuracy    <       0.00000304 Ry

     iteration # 40     ecut=   124.00 Ry     beta= 0.70
     Davidson diagonalization with overlap
     ethr =  1.08E-08,  avg # of iterations =  4.9

     negative rho (up, down):  9.722E-04 0.000E+00

     total cpu time spent up to now is       64.5 secs

     WARNING: integrated charge=    28.00142814, expected=    28.00000000

     total energy              =    -448.58328070 Ry
     estimated scf accuracy    <       0.00000178 Ry

     iteration # 41     ecut=   124.00 Ry     beta= 0.70
     Davidson diagonalization with overlap
     ethr =  6.35E-09,  avg # of iterations =  3.0

     negative rho (up, down):  9.731E-04 0.000E+00

     total cpu time spent up to now is       66.0 secs

     WARNING: integrated charge=    28.00109497, expected=    28.00000000

     total energy              =    -448.58345959 Ry
     estimated scf accuracy    <       0.00000050 Ry

     iteration # 42     ecut=   124.00 Ry     beta= 0.70
     Davidson diagonalization with overlap
     ethr =  1.77E-09,  avg # of iterations =  2.4

     negative rho (up, down):  9.725E-04 0.000E+00

     total cpu time spent up to now is       67.3 secs

     WARNING: integrated charge=    28.00117305, expected=    28.00000000

     total energy              =    -448.58335672 Ry
     estimated scf accuracy    <       0.00000028 Ry

     iteration # 43     ecut=   124.00 Ry     beta= 0.70
     Davidson diagonalization with overlap
     ethr =  9.96E-10,  avg # of iterations =  2.8

     negative rho (up, down):  9.726E-04 0.000E+00

     total cpu time spent up to now is       68.7 secs

     WARNING: integrated charge=    28.00111707, expected=    28.00000000

     total energy              =    -448.58343770 Ry
     estimated scf accuracy    <       0.00000013 Ry

     iteration # 44     ecut=   124.00 Ry     beta= 0.70
     Davidson diagonalization with overlap
     ethr =  4.61E-10,  avg # of iterations =  1.1

     negative rho (up, down):  9.728E-04 0.000E+00

     total cpu time spent up to now is       70.0 secs

     WARNING: integrated charge=    28.00107582, expected=    28.00000000

     total energy              =    -448.58342560 Ry
     estimated scf accuracy    <       0.00000010 Ry

     iteration # 45     ecut=   124.00 Ry     beta= 0.70
     Davidson diagonalization with overlap
     ethr =  3.66E-10,  avg # of iterations =  1.7

     negative rho (up, down):  9.727E-04 0.000E+00

     total cpu time spent up to now is       71.2 secs

     End of self-consistent calculation

          k = 0.0000 0.0000 0.0000 (  4169 PWs)   bands (ev):

   -70.3768 -40.4792 -36.4358 -36.4358 -36.4358 -16.5888 -16.5888 -16.5888
     9.1432  12.9681  12.9681  15.5239  15.5239  15.5239  17.6990  17.6990
    19.4816  19.4816

          k = 0.0000 0.0000 0.0909 (  4252 PWs)   bands (ev):

   -70.3766 -40.4775 -36.4380 -36.4356 -36.4356 -16.6123 -16.5873 -16.5873
     9.3067  13.0458  13.0466  15.5118  15.5118  15.5588  17.6040  17.7342
    19.2532  19.2532

          k = 0.0000 0.0000 0.1818 (  4224 PWs)   bands (ev):

   -70.3761 -40.4727 -36.4437 -36.4348 -36.4348 -16.6750 -16.5834 -16.5834
     9.7827  13.2476  13.2729  15.4839  15.4839  15.6566  17.3289  17.8113
    18.7195  18.7195

          k = 0.0000 0.0000 0.2727 (  4240 PWs)   bands (ev):

   -70.3754 -40.4664 -36.4511 -36.4338 -36.4338 -16.7563 -16.5782 -16.5782
    10.5262  13.4657  13.6297  15.4588  15.4588  15.7954  16.9065  17.8279
    18.1273  18.1273

          k = 0.0000 0.0000 0.3636 (  4232 PWs)   bands (ev):

   -70.3747 -40.4607 -36.4580 -36.4328 -36.4328 -16.8302 -16.5734 -16.5734
    11.4536  13.5215  14.0696  15.4513  15.4513  15.9364  16.4033  17.6272
    17.6427  17.6427

          k = 0.0000 0.0000 0.4545 (  4232 PWs)   bands (ev):

   -70.3743 -40.4573 -36.4620 -36.4323 -36.4323 -16.8737 -16.5705 -16.5705
    12.4087  13.2061  14.4614  15.4568  15.4568  15.9727  16.0281  17.3224
    17.3691  17.3691

          k = 0.0000 0.0909 0.0909 (  4245 PWs)   bands (ev):

   -70.3764 -40.4756 -36.4386 -36.4370 -36.4353 -16.6129 -16.6084 -16.5858
     9.4673  13.1172  13.1282  15.4373  15.4926  15.6456  17.5900  17.7077
    19.0026  19.0239

          k = 0.0000 0.0909 0.1818 (  4232 PWs)   bands (ev):

   -70.3759 -40.4706 -36.4439 -36.4369 -36.4345 -16.6730 -16.6059 -16.5817
     9.9339  13.3119  13.3510  15.3638  15.4451  15.7524  17.3783  17.7750
    18.5021  18.5362

          k = 0.0000 0.0909 0.2727 (  4220 PWs)   bands (ev):

   -70.3752 -40.4641 -36.4515 -36.4363 -36.4335 -16.7535 -16.6001 -16.5763
    10.6597  13.5292  13.6848  15.3226  15.3909  15.8301  17.0188  17.7363
    18.0392  18.0778

          k = 0.0000 0.0909 0.3636 (  4228 PWs)   bands (ev):

   -70.3745 -40.4581 -36.4584 -36.4356 -36.4326 -16.8267 -16.5948 -16.5713
    11.5586  13.5748  14.0932  15.3249  15.3424  15.8375  16.6054  17.3564
    17.7703  17.8771

          k = 0.0000 0.0909 0.4545 (  4224 PWs)   bands (ev):

   -70.3741 -40.4546 -36.4625 -36.4352 -36.4320 -16.8699 -16.5916 -16.5684
    12.4736  13.2578  14.4529  15.2806  15.3550  15.7914  16.3048  17.0783
    17.6453  17.6893

          k = 0.0000 0.1818 0.1818 (  4226 PWs)   bands (ev):

   -70.3753 -40.4651 -36.4457 -36.4414 -36.4338 -16.6733 -16.6605 -16.5772
    10.3697  13.4463  13.5980  15.2052  15.3548  15.8208  17.4238  17.7385
    18.0238  18.2408

          k = 0.0000 0.1818 0.2727 (  4240 PWs)   bands (ev):

   -70.3746 -40.4578 -36.4525 -36.4428 -36.4328 -16.7462 -16.6586 -16.5712
    11.0356  13.5853  13.9393  15.0940  15.2662  15.7516  17.2691  17.5068
    17.8836  18.0760

          k = 0.0000 0.1818 0.3636 (  4245 PWs)   bands (ev):

   -70.3740 -40.4512 -36.4596 -36.4431 -36.4319 -16.8175 -16.6518 -16.5658
    11.8326  13.5796  14.2961  15.0597  15.2322  15.5620  16.9935  17.1874
    17.9855  18.0910

          k = 0.0000 0.1818 0.4545 (  4237 PWs)   bands (ev):

   -70.3736 -40.4472 -36.4640 -36.4432 -36.4314 -16.8596 -16.6477 -16.5625
    12.5946  13.3004  14.5623  15.1029  15.2523  15.3664  16.8337  16.9580
    17.9911  18.1768

          k = 0.0000 0.2727 0.2727 (  4234 PWs)   bands (ev):

   -70.3739 -40.4496 -36.4551 -36.4499 -36.4319 -16.7430 -16.7280 -16.5646
    11.5775  13.5575  14.3443  14.9037  15.2107  15.5077  17.2987  17.4815
    17.7852  18.2327

          k = 0.0000 0.2727 0.3636 (  4233 PWs)   bands (ev):

   -70.3733 -40.4420 -36.4614 -36.4527 -36.4310 -16.8054 -16.7257 -16.5586
    12.1587  13.4236  14.7485  14.8026  15.2123  15.3343  17.1243  17.4586
    17.9340  18.4830

          k = 0.0000 0.2727 0.4545 (  4243 PWs)   bands (ev):

   -70.3729 -40.4375 -36.4659 -36.4535 -36.4305 -16.8460 -16.7206 -16.5549
    12.6217  13.2076  14.8127  14.9700  14.9737  15.6419  16.8895  17.4218
    18.1124  18.7078

          k = 0.0000 0.3636 0.3636 (  4256 PWs)   bands (ev):

   -70.3727 -40.4336 -36.4637 -36.4607 -36.4302 -16.7980 -16.7893 -16.5519
    12.4087  13.2203  14.6315  14.8950  15.3013  15.6790  17.2306  17.7738
    17.7897  18.8522

          k = 0.0000 0.3636 0.4545 (  4258 PWs)   bands (ev):

   -70.3723 -40.4286 -36.4677 -36.4630 -36.4297 -16.8336 -16.7869 -16.5479
    12.5387  13.0741  14.5833  14.6761  15.6351  16.2756  17.0009  17.8334
    17.9662  19.1285

          k = 0.0000 0.4545 0.4545 (  4254 PWs)   bands (ev):

   -70.3719 -40.4232 -36.4689 -36.4685 -36.4292 -16.8267 -16.8255 -16.5438
    12.4592  12.9913  14.4725  14.5035  16.2916  16.7131  17.3341  17.5034
    18.0819  19.3763

          k = 0.0909 0.0909 0.0909 (  4244 PWs)   bands (ev):

   -70.3762 -40.4737 -36.4383 -36.4383 -36.4362 -16.6131 -16.6069 -16.6069
     9.6253  13.1981  13.1981  15.4164  15.4164  15.7146  17.6365  17.6365
    18.6201  19.2340

          k = 0.0909 0.0909 0.1818 (  4226 PWs)   bands (ev):

   -70.3757 -40.4685 -36.4440 -36.4375 -36.4361 -16.6710 -16.6055 -16.6028
    10.0837  13.4012  13.4040  15.3153  15.3609  15.7880  17.4309  17.7409
    18.1851  18.6972

          k = 0.0909 0.0909 0.2727 (  4220 PWs)   bands (ev):

   -70.3750 -40.4618 -36.4517 -36.4364 -36.4357 -16.7508 -16.5989 -16.5975
    10.7941  13.6196  13.7154  15.2596  15.2853  15.7836  17.1198  17.6869
    18.0007  18.1129

          k = 0.0909 0.0909 0.3636 (  4226 PWs)   bands (ev):

   -70.3743 -40.4555 -36.4588 -36.4354 -36.4353 -16.8234 -16.5928 -16.5926
    11.6678  13.6515  14.0937  15.1925  15.2839  15.7081  16.7704  17.4110
    17.6480  18.0788

          k = 0.0909 0.0909 0.4545 (  4248 PWs)   bands (ev):

   -70.3739 -40.4518 -36.4630 -36.4351 -36.4349 -16.8662 -16.5897 -16.5892
    12.5475  13.3252  14.4245  15.0779  15.3840  15.6289  16.5176  17.1343
    17.3940  18.1674

          k = 0.0909 0.1818 0.1818 (  4234 PWs)   bands (ev):

   -70.3751 -40.4629 -36.4454 -36.4417 -36.4361 -16.6707 -16.6589 -16.5993
    10.5152  13.5397  13.6448  15.1708  15.2589  15.7517  17.4863  17.7126
    17.9222  18.4372

          k = 0.0909 0.1818 0.2727 (  4233 PWs)   bands (ev):

   -70.3744 -40.4555 -36.4524 -36.4428 -36.4354 -16.7436 -16.6566 -16.5930
    11.1722  13.6947  13.9560  15.0531  15.1637  15.5868  17.3491  17.6165
    17.9201  18.1260

          k = 0.0909 0.1818 0.3636 (  4235 PWs)   bands (ev):

   -70.3738 -40.4486 -36.4598 -36.4428 -36.4347 -16.8145 -16.6498 -16.5872
    11.9537  13.6952  14.2559  14.9824  15.1507  15.4213  17.1363  17.2893
    17.7848  18.3588

          k = 0.0909 0.1818 0.4545 (  4250 PWs)   bands (ev):

   -70.3734 -40.4446 -36.4643 -36.4429 -36.4343 -16.8563 -16.6457 -16.5837
    12.6937  13.4033  14.4815  14.9129  15.2475  15.3575  16.9662  17.0259
    17.5956  18.7083

          k = 0.0909 0.2727 0.2727 (  4241 PWs)   bands (ev):

   -70.3737 -40.4472 -36.4548 -36.4501 -36.4346 -16.7400 -16.7264 -16.5862
    11.7161  13.6713  14.3535  14.8673  15.0962  15.3120  17.4063  17.6267
    17.7678  18.3506

          k = 0.0909 0.2727 0.3636 (  4233 PWs)   bands (ev):

   -70.3731 -40.4396 -36.4612 -36.4525 -36.4339 -16.8028 -16.7238 -16.5800
    12.2939  13.5393  14.6942  14.7624  15.1012  15.2165  17.1994  17.5408
    17.8317  18.7250

          k = 0.0909 0.2727 0.4545 (  4259 PWs)   bands (ev):

   -70.3727 -40.4350 -36.4659 -36.4532 -36.4334 -16.8434 -16.7187 -16.5762
    12.7440  13.3253  14.7359  14.7719  15.0388  15.5633  16.9223  17.5176
    17.7590  19.1691

          k = 0.0909 0.3636 0.3636 (  4239 PWs)   bands (ev):

   -70.3725 -40.4312 -36.4634 -36.4606 -36.4330 -16.7956 -16.7877 -16.5733
    12.5462  13.3353  14.6024  14.8117  15.2611  15.5221  17.2033  17.6589
    17.8834  19.1340

          k = 0.0909 0.3636 0.4545 (  4259 PWs)   bands (ev):

   -70.3721 -40.4262 -36.4675 -36.4626 -36.4326 -16.8315 -16.7851 -16.5693
    12.6675  13.1931  14.5520  14.6275  15.5622  16.1123  16.9664  17.6204
    17.9671  19.3539

          k = 0.0909 0.4545 0.4545 (  4240 PWs)   bands (ev):

   -70.3717 -40.4210 -36.4685 -36.4681 -36.4321 -16.8249 -16.8238 -16.5652
    12.5881  13.1100  14.4504  14.4772  16.2331  16.5679  17.1219  17.1991
    18.1551  19.5619

          k = 0.1818 0.1818 0.1818 (  4235 PWs)   bands (ev):

   -70.3746 -40.4569 -36.4445 -36.4445 -36.4402 -16.6675 -16.6547 -16.6547
    10.9316  13.7777  13.7777  15.0788  15.0788  15.5086  17.6367  17.6367
    17.9700  18.6589

          k = 0.1818 0.1818 0.2727 (  4238 PWs)   bands (ev):

   -70.3739 -40.4491 -36.4525 -36.4434 -36.4415 -16.7366 -16.6531 -16.6491
    11.5566  13.9733  14.0085  14.9510  14.9543  15.2226  17.5219  17.6921
    18.0990  18.2476

          k = 0.1818 0.1818 0.3636 (  4247 PWs)   bands (ev):

   -70.3733 -40.4419 -36.4603 -36.4424 -36.4421 -16.8064 -16.6446 -16.6440
    12.2773  13.9486  14.1922  14.8213  14.9753  15.1585  17.4018  17.4323
    17.6625  18.7603

          k = 0.1818 0.1818 0.4545 (  4241 PWs)   bands (ev):

   -70.3729 -40.4376 -36.4650 -36.4424 -36.4418 -16.8477 -16.6410 -16.6395
    12.9242  13.6049  14.3731  14.7027  15.0753  15.3106  17.0438  17.3382
    17.4100  19.1104

          k = 0.1818 0.2727 0.2727 (  4236 PWs)   bands (ev):

   -70.3732 -40.4407 -36.4538 -36.4506 -36.4419 -16.7321 -16.7220 -16.6438
    12.1062  13.9818  14.3749  14.7726  14.8396  14.9087  17.5272  17.6936
    18.0147  18.6831

          k = 0.1818 0.2727 0.3636 (  4249 PWs)   bands (ev):

   -70.3726 -40.4330 -36.4610 -36.4521 -36.4415 -16.7960 -16.7184 -16.6371
    12.6707  13.8435  14.5191  14.6614  14.8722  14.9839  17.3028  17.5323
    17.9165  18.9774

          k = 0.1818 0.2727 0.4545 (  4259 PWs)   bands (ev):

   -70.3722 -40.4284 -36.4659 -36.4524 -36.4411 -16.8364 -16.7136 -16.6331
    13.0756  13.6184  14.5089  14.6015  14.9410  15.3759  16.9580  17.3873
    17.8345  19.1771

          k = 0.1818 0.3636 0.3636 (  4252 PWs)   bands (ev):

   -70.3719 -40.4248 -36.4624 -36.4604 -36.4407 -16.7890 -16.7832 -16.6305
    12.9393  13.6363  14.5291  14.6300  15.1380  15.1394  17.1857  17.3928
    18.1576  19.1285

          k = 0.1818 0.3636 0.4545 (  4252 PWs)   bands (ev):

   -70.3716 -40.4200 -36.4668 -36.4617 -36.4402 -16.8260 -16.7803 -16.6265
    13.0340  13.5056  14.4771  14.5183  15.3253  15.7197  16.9117  17.2533
    18.2269  19.3486

          k = 0.1818 0.4545 0.4545 (  4249 PWs)   bands (ev):

   -70.3712 -40.4149 -36.4675 -36.4672 -36.4397 -16.8201 -16.8193 -16.6226
    12.9576  13.4270  14.3970  14.4158  15.9631  16.0440  16.8073  16.9819
    18.3970  19.6174

          k = 0.2727 0.2727 0.2727 (  4263 PWs)   bands (ev):

   -70.3725 -40.4322 -36.4527 -36.4527 -36.4501 -16.7240 -16.7162 -16.7162
    12.6577  14.3946  14.3946  14.4647  14.6548  14.6548  17.5303  17.5303
    18.4472  18.4472

          k = 0.2727 0.2727 0.3636 (  4265 PWs)   bands (ev):

   -70.3719 -40.4244 -36.4608 -36.4516 -36.4513 -16.7871 -16.7116 -16.7109
    13.1769  14.0942  14.4022  14.5525  14.6428  14.8415  17.2861  17.3387
    18.3081  18.9010

          k = 0.2727 0.2727 0.4545 (  4246 PWs)   bands (ev):

   -70.3715 -40.4197 -36.4660 -36.4516 -36.4509 -16.8272 -16.7078 -16.7060
    13.4546  13.8606  14.4009  14.4943  14.7835  15.2301  16.9062  17.2232
    18.2589  19.2098

          k = 0.2727 0.3636 0.3636 (  4267 PWs)   bands (ev):

   -70.3713 -40.4165 -36.4611 -36.4601 -36.4507 -16.7804 -16.7774 -16.7047
    13.5218  13.9608  14.4469  14.5184  14.7148  14.9421  17.1385  17.1412
    18.5856  19.0854

          k = 0.2727 0.3636 0.4545 (  4249 PWs)   bands (ev):

   -70.3709 -40.4117 -36.4660 -36.4606 -36.4502 -16.8187 -16.7740 -16.7007
    13.5612  13.8699  14.4090  14.4469  14.9618  15.3088  16.8200  17.0646
    18.6425  19.3823

          k = 0.2727 0.4545 0.4545 (  4242 PWs)   bands (ev):

   -70.3705 -40.4070 -36.4661 -36.4660 -36.4497 -16.8139 -16.8135 -16.6970
    13.5086  13.8305  14.3456  14.3680  15.4467  15.4794  16.6656  16.9105
    18.8030  19.6516

          k = 0.3636 0.3636 0.3636 (  4248 PWs)   bands (ev):

   -70.3706 -40.4087 -36.4599 -36.4599 -36.4598 -16.7726 -16.7720 -16.7720
    13.9727  14.1873  14.3973  14.3973  14.7208  14.7208  16.9787  16.9787
    19.0909  19.0909

          k = 0.3636 0.3636 0.4545 (  4252 PWs)   bands (ev):

   -70.3702 -40.4042 -36.4653 -36.4597 -36.4592 -16.8120 -16.7688 -16.7677
    13.9727  14.1105  14.4103  14.5425  14.6669  15.0360  16.7359  16.9086
    19.1025  19.4671

          k = 0.3636 0.4545 0.4545 (  4239 PWs)   bands (ev):

   -70.3699 -40.3997 -36.4649 -36.4649 -36.4588 -16.8081 -16.8080 -16.7648
    14.0727  14.1855  14.3375  14.4244  14.9649  15.0187  16.6293  16.7822
    19.3051  19.6782

          k = 0.4545 0.4545 0.4545 (  4254 PWs)   bands (ev):

   -70.3695 -40.3953 -36.4643 -36.4642 -36.4642 -16.8048 -16.8048 -16.8046
    14.2761  14.3980  14.3980  14.6990  14.6992  14.6992  16.6204  16.6204
    19.6933  19.6933

     the Fermi energy is    16.4244 ev

     WARNING: integrated charge=    28.00109383, expected=    28.00000000

!    total energy              =    -448.58339598 Ry
     estimated scf accuracy    <          1.2E-09 Ry
     smearing contrib. (-TS)   =       0.00004012 Ry
     internal energy E=F+TS    =    -448.58343610 Ry

     The total energy is F=E-TS. E is the sum of the following terms:
     one-electron contribution =    -159.38895065 Ry
     hartree contribution      =      94.36687103 Ry
     xc contribution           =     -52.78689318 Ry
     ewald contribution        =    -254.62200129 Ry
     one-center paw contrib.   =     -76.15246202 Ry

     convergence has been achieved in  45 iterations

     negative rho (up, down):  9.727E-04 0.000E+00

     Forces acting on atoms (cartesian axes, Ry/au):

     atom    1 type  1   force =     0.00000000    0.00000000    0.00000000
     atom    2 type  2   force =     0.00000000    0.00000000    0.00000000

     Total force =     0.000000     Total SCF correction =     0.000000


     Computing stress (Cartesian axis) and pressure


     negative rho (up, down):  9.727E-04 0.000E+00
          total   stress  (Ry/bohr**3)                   (kbar)     P=      -78.14
  -0.00053119   0.00000000   0.00000000          -78.14        0.00        0.00
   0.00000000  -0.00053119   0.00000000            0.00      -78.14        0.00
   0.00000000   0.00000000  -0.00053119            0.00        0.00      -78.14


     Writing all to output data dir ./TiFe.save/ :
     XML data file, charge density, pseudopotentials, collected wavefunctions

     init_run     :      1.08s CPU      1.15s WALL (       1 calls)
     electrons    :     66.80s CPU     69.89s WALL (       1 calls)
     forces       :      0.26s CPU      0.29s WALL (       1 calls)
     stress       :      1.50s CPU      1.57s WALL (       1 calls)

     Called by init_run:
     wfcinit      :      0.44s CPU      0.46s WALL (       1 calls)
     potinit      :      0.20s CPU      0.21s WALL (       1 calls)
     hinit0       :      0.26s CPU      0.26s WALL (       1 calls)

     Called by electrons:
     c_bands      :     45.42s CPU     46.32s WALL (      45 calls)
     sum_band     :     12.31s CPU     13.49s WALL (      45 calls)
     v_of_rho     :      1.02s CPU      1.10s WALL (      46 calls)
     newd         :      5.57s CPU      6.41s WALL (      46 calls)
     PAW_pot      :      2.46s CPU      2.53s WALL (      46 calls)
     mix_rho      :      0.11s CPU      0.13s WALL (      45 calls)

     Called by c_bands:
     init_us_2    :      0.87s CPU      0.90s WALL (    5208 calls)
     cegterg      :     43.86s CPU     44.68s WALL (    2520 calls)

     Called by *egterg:
     cdiaghg      :      3.99s CPU      4.07s WALL (   10974 calls)
     h_psi        :     35.37s CPU     36.05s WALL (   11030 calls)
     s_psi        :      0.67s CPU      0.68s WALL (   11030 calls)
     g_psi        :      0.15s CPU      0.15s WALL (    8454 calls)

     Called by h_psi:
     h_psi:calbec :      1.34s CPU      1.36s WALL (   11030 calls)
     vloc_psi     :     33.17s CPU     33.81s WALL (   11030 calls)
     add_vuspsi   :      0.71s CPU      0.72s WALL (   11030 calls)

     General routines
     calbec       :      1.82s CPU      1.85s WALL (   14502 calls)
     fft          :      0.69s CPU      0.82s WALL (     621 calls)
     ffts         :      0.13s CPU      0.13s WALL (      91 calls)
     fftw         :     33.05s CPU     33.65s WALL (  295148 calls)
     interpolate  :      0.16s CPU      0.17s WALL (      46 calls)

     Parallel routines

     PWSCF        :     69.94s CPU     73.35s WALL


   This run was terminated on:   0:46:22  25Oct2025            

=------------------------------------------------------------------------------=
   JOB DONE.
=------------------------------------------------------------------------------=
