
     Program PWSCF v.7.4 starts on 25Oct2025 at  0:37: 9 

     This program is part of the open-source Quantum ESPRESSO suite
     for quantum simulation of materials; please cite
         "P. Giannozzi et al., J. Phys.:Condens. Matter 21 395502 (2009);
         "P. Giannozzi et al., J. Phys.:Condens. Matter 29 465901 (2017);
         "P. Giannozzi et al., J. Chem. Phys. 152 154105 (2020);
          URL http://www.quantum-espresso.org", 
     in publications or presentations arising from this work. More details at
     http://www.quantum-espresso.org/quote

     Parallel version (MPI & OpenMP), running on       8 processor cores
     Number of MPI processes:                 8
     Threads/MPI process:                     1

     MPI processes distributed on     1 nodes
     210270 MiB available memory on the printing compute node when the environment starts

     Reading input from TiFe_4.in

     Current dimensions of program PWSCF are:
     Max number of different atomic species (ntypx) = 10
     Max number of k-points (npk) =  40000
     Max angular momentum in pseudopotentials (lmaxx) =  4
     file Fe.pbe-spn-kjpaw_psl.0.2.1.UPF: wavefunction(s)  3D renormalized

     IMPORTANT: XC functional enforced from input :
     Exchange-correlation= PBE
                           (   1   4   3   4   0   0   0)
     Any further DFT definition will be discarded
     Please, verify this is what you really want

     Message from routine setup:
     using ibrav=0 with symmetry is DISCOURAGED, use correct ibrav instead

     R & G space division:  proc/nbgrp/npool/nimage =       8
     Subspace diagonalization in iterative solution of the eigenvalue problem:
     a serial algorithm will be used


     Parallelization info
     --------------------
     sticks:   dense  smooth     PW     G-vecs:    dense   smooth      PW
     Min         503     144     42                24053     3676     586
     Max         504     145     43                24056     3679     589
     Sum        4025    1153    341               192431    29423    4697

     Using Slab Decomposition



     bravais-lattice index     =            0
     lattice parameter (alat)  =       5.4021  a.u.
     unit-cell volume          =     157.6497 (a.u.)^3
     number of atoms/cell      =            2
     number of atomic types    =            2
     number of electrons       =        28.00
     number of Kohn-Sham states=           18
     kinetic-energy cutoff     =     124.0000  Ry
     charge density cutoff     =    1736.0000  Ry
     scf convergence threshold =      1.0E-08
     mixing beta               =       0.7000
     number of iterations used =            8  plain     mixing
     Exchange-correlation= PBE
                           (   1   4   3   4   0   0   0)

     celldm(1)=   5.402122  celldm(2)=   0.000000  celldm(3)=   0.000000
     celldm(4)=   0.000000  celldm(5)=   0.000000  celldm(6)=   0.000000

     crystal axes: (cart. coord. in units of alat)
               a(1) = (   1.000000   0.000000   0.000000 )  
               a(2) = (   0.000000   1.000000   0.000000 )  
               a(3) = (   0.000000   0.000000   1.000000 )  

     reciprocal axes: (cart. coord. in units 2 pi/alat)
               b(1) = (  1.000000  0.000000  0.000000 )  
               b(2) = (  0.000000  1.000000  0.000000 )  
               b(3) = (  0.000000  0.000000  1.000000 )  


     PseudoPot. # 1 for Fe read from file:
     ../pseudos/Fe.pbe-spn-kjpaw_psl.0.2.1.UPF
     MD5 check sum: e86618425769142926afa95317d90200
     Pseudo is Projector augmented-wave + core cor, Zval = 16.0
     Generated using "atomic" code by A. Dal Corso  v.5.0.99 svn rev. 10869
     Shape of augmentation charge: PSQ
     Using radial grid of 1191 points,  6 beta functions with: 
                l(1) =   0
                l(2) =   0
                l(3) =   1
                l(4) =   1
                l(5) =   2
                l(6) =   2
     Q(r) pseudized with 0 coefficients 


     PseudoPot. # 2 for Ti read from file:
     ../pseudos/ti_pbe_v1.4.uspp.F.UPF
     MD5 check sum: 88a00a6731bd790ddea75d31a80cb452
     Pseudo is Ultrasoft + core correction, Zval = 12.0
     Generated by new atomic code, or converted to UPF format
     Using radial grid of  851 points,  6 beta functions with: 
                l(1) =   0
                l(2) =   0
                l(3) =   1
                l(4) =   1
                l(5) =   2
                l(6) =   2
     Q(r) pseudized with  6 coefficients,  rinner =    1.000   1.000   1.000
                                                       1.000   1.000

     atomic species   valence    mass     pseudopotential
     Fe               16.00    55.84500     Fe( 1.00)
     Ti               12.00    47.86700     Ti( 1.00)

     48 Sym. Ops., with inversion, found



   Cartesian axes

     site n.     atom                  positions (alat units)
         1        Fe     tau(   1) = (   0.5000000   0.5000000   0.5000000  )
         2        Ti     tau(   2) = (   0.0000000   0.0000000   0.0000000  )

     number of k points=    56  Marzari-Vanderbilt smearing, width (Ry)=  0.0050
                       cart. coord. in units 2pi/alat
        k(    1) = (   0.0000000   0.0000000   0.0000000), wk =   0.0015026
        k(    2) = (   0.0000000   0.0000000   0.0909091), wk =   0.0090158
        k(    3) = (   0.0000000   0.0000000   0.1818182), wk =   0.0090158
        k(    4) = (   0.0000000   0.0000000   0.2727273), wk =   0.0090158
        k(    5) = (   0.0000000   0.0000000   0.3636364), wk =   0.0090158
        k(    6) = (   0.0000000   0.0000000   0.4545455), wk =   0.0090158
        k(    7) = (   0.0000000   0.0909091   0.0909091), wk =   0.0180316
        k(    8) = (   0.0000000   0.0909091   0.1818182), wk =   0.0360631
        k(    9) = (   0.0000000   0.0909091   0.2727273), wk =   0.0360631
        k(   10) = (   0.0000000   0.0909091   0.3636364), wk =   0.0360631
        k(   11) = (   0.0000000   0.0909091   0.4545455), wk =   0.0360631
        k(   12) = (   0.0000000   0.1818182   0.1818182), wk =   0.0180316
        k(   13) = (   0.0000000   0.1818182   0.2727273), wk =   0.0360631
        k(   14) = (   0.0000000   0.1818182   0.3636364), wk =   0.0360631
        k(   15) = (   0.0000000   0.1818182   0.4545455), wk =   0.0360631
        k(   16) = (   0.0000000   0.2727273   0.2727273), wk =   0.0180316
        k(   17) = (   0.0000000   0.2727273   0.3636364), wk =   0.0360631
        k(   18) = (   0.0000000   0.2727273   0.4545455), wk =   0.0360631
        k(   19) = (   0.0000000   0.3636364   0.3636364), wk =   0.0180316
        k(   20) = (   0.0000000   0.3636364   0.4545455), wk =   0.0360631
        k(   21) = (   0.0000000   0.4545455   0.4545455), wk =   0.0180316
        k(   22) = (   0.0909091   0.0909091   0.0909091), wk =   0.0120210
        k(   23) = (   0.0909091   0.0909091   0.1818182), wk =   0.0360631
        k(   24) = (   0.0909091   0.0909091   0.2727273), wk =   0.0360631
        k(   25) = (   0.0909091   0.0909091   0.3636364), wk =   0.0360631
        k(   26) = (   0.0909091   0.0909091   0.4545455), wk =   0.0360631
        k(   27) = (   0.0909091   0.1818182   0.1818182), wk =   0.0360631
        k(   28) = (   0.0909091   0.1818182   0.2727273), wk =   0.0721262
        k(   29) = (   0.0909091   0.1818182   0.3636364), wk =   0.0721262
        k(   30) = (   0.0909091   0.1818182   0.4545455), wk =   0.0721262
        k(   31) = (   0.0909091   0.2727273   0.2727273), wk =   0.0360631
        k(   32) = (   0.0909091   0.2727273   0.3636364), wk =   0.0721262
        k(   33) = (   0.0909091   0.2727273   0.4545455), wk =   0.0721262
        k(   34) = (   0.0909091   0.3636364   0.3636364), wk =   0.0360631
        k(   35) = (   0.0909091   0.3636364   0.4545455), wk =   0.0721262
        k(   36) = (   0.0909091   0.4545455   0.4545455), wk =   0.0360631
        k(   37) = (   0.1818182   0.1818182   0.1818182), wk =   0.0120210
        k(   38) = (   0.1818182   0.1818182   0.2727273), wk =   0.0360631
        k(   39) = (   0.1818182   0.1818182   0.3636364), wk =   0.0360631
        k(   40) = (   0.1818182   0.1818182   0.4545455), wk =   0.0360631
        k(   41) = (   0.1818182   0.2727273   0.2727273), wk =   0.0360631
        k(   42) = (   0.1818182   0.2727273   0.3636364), wk =   0.0721262
        k(   43) = (   0.1818182   0.2727273   0.4545455), wk =   0.0721262
        k(   44) = (   0.1818182   0.3636364   0.3636364), wk =   0.0360631
        k(   45) = (   0.1818182   0.3636364   0.4545455), wk =   0.0721262
        k(   46) = (   0.1818182   0.4545455   0.4545455), wk =   0.0360631
        k(   47) = (   0.2727273   0.2727273   0.2727273), wk =   0.0120210
        k(   48) = (   0.2727273   0.2727273   0.3636364), wk =   0.0360631
        k(   49) = (   0.2727273   0.2727273   0.4545455), wk =   0.0360631
        k(   50) = (   0.2727273   0.3636364   0.3636364), wk =   0.0360631
        k(   51) = (   0.2727273   0.3636364   0.4545455), wk =   0.0721262
        k(   52) = (   0.2727273   0.4545455   0.4545455), wk =   0.0360631
        k(   53) = (   0.3636364   0.3636364   0.3636364), wk =   0.0120210
        k(   54) = (   0.3636364   0.3636364   0.4545455), wk =   0.0360631
        k(   55) = (   0.3636364   0.4545455   0.4545455), wk =   0.0360631
        k(   56) = (   0.4545455   0.4545455   0.4545455), wk =   0.0120210

     Dense  grid:   192431 G-vectors     FFT dimensions: (  72,  72,  72)

     Smooth grid:    29423 G-vectors     FFT dimensions: (  40,  40,  40)

     Estimated max dynamical RAM per process >     101.68 MB

     Estimated total dynamical RAM >     813.44 MB

     Check: negative core charge=   -0.000002

     Initial potential from superposition of free atoms

     starting charge      26.9995, renormalised to      28.0000

     negative rho (up, down):  1.338E-03 0.000E+00
     Starting wfcs are   23 randomized atomic wfcs
     Checking if some PAW data can be deallocated... 

     total cpu time spent up to now is        1.7 secs

     per-process dynamical memory:   133.2 Mb

     Self-consistent Calculation

     iteration #  1     ecut=   124.00 Ry     beta= 0.70
     Davidson diagonalization with overlap
     ethr =  1.00E-02,  avg # of iterations =  2.1

     negative rho (up, down):  5.722E-05 0.000E+00

     total cpu time spent up to now is        2.8 secs

     total energy              =    -436.38966935 Ry
     estimated scf accuracy    <      15.63293238 Ry

     iteration #  2     ecut=   124.00 Ry     beta= 0.70
     Davidson diagonalization with overlap
     ethr =  1.00E-02,  avg # of iterations =  6.2

     negative rho (up, down):  5.898E-05 0.000E+00

     total cpu time spent up to now is        4.4 secs

     total energy              =    -448.46073123 Ry
     estimated scf accuracy    <      60.11615562 Ry

     iteration #  3     ecut=   124.00 Ry     beta= 0.70
     Davidson diagonalization with overlap
     ethr =  1.00E-02,  avg # of iterations =  3.0

     negative rho (up, down):  2.926E-04 0.000E+00

     total cpu time spent up to now is        5.6 secs

     total energy              =    -448.46972728 Ry
     estimated scf accuracy    <      15.17178083 Ry

     iteration #  4     ecut=   124.00 Ry     beta= 0.70
     Davidson diagonalization with overlap
     ethr =  1.00E-02,  avg # of iterations =  2.1

     negative rho (up, down):  2.886E-04 0.000E+00

     total cpu time spent up to now is        6.6 secs

     total energy              =    -449.02863875 Ry
     estimated scf accuracy    <       3.82811326 Ry

     iteration #  5     ecut=   124.00 Ry     beta= 0.70
     Davidson diagonalization with overlap
     ethr =  1.00E-02,  avg # of iterations =  1.0

     negative rho (up, down):  3.780E-04 0.000E+00

     total cpu time spent up to now is        7.5 secs

     total energy              =    -448.71976383 Ry
     estimated scf accuracy    <       3.57835819 Ry

     iteration #  6     ecut=   124.00 Ry     beta= 0.70
     Davidson diagonalization with overlap
     ethr =  1.00E-02,  avg # of iterations =  1.0

     negative rho (up, down):  3.846E-04 0.000E+00

     total cpu time spent up to now is        8.4 secs

     total energy              =    -448.76098883 Ry
     estimated scf accuracy    <       1.32702623 Ry

     iteration #  7     ecut=   124.00 Ry     beta= 0.70
     Davidson diagonalization with overlap
     ethr =  4.74E-03,  avg # of iterations =  1.0

     negative rho (up, down):  3.850E-04 0.000E+00

     total cpu time spent up to now is        9.3 secs

     total energy              =    -448.76809473 Ry
     estimated scf accuracy    <       1.04991513 Ry

     iteration #  8     ecut=   124.00 Ry     beta= 0.70
     Davidson diagonalization with overlap
     ethr =  3.75E-03,  avg # of iterations =  1.0

     negative rho (up, down):  4.277E-04 0.000E+00

     total cpu time spent up to now is       10.2 secs

     total energy              =    -448.79750030 Ry
     estimated scf accuracy    <       0.97453968 Ry

     iteration #  9     ecut=   124.00 Ry     beta= 0.70
     Davidson diagonalization with overlap
     ethr =  3.48E-03,  avg # of iterations =  1.0

     negative rho (up, down):  9.583E-01 0.000E+00

     total cpu time spent up to now is       11.1 secs

     total energy              =    -455.65559955 Ry
     estimated scf accuracy    <       0.87865577 Ry

     iteration # 10     ecut=   124.00 Ry     beta= 0.70
     Davidson diagonalization with overlap
     ethr =  3.14E-03,  avg # of iterations =  6.4

     negative rho (up, down):  3.136E-01 0.000E+00

     total cpu time spent up to now is       12.7 secs

     total energy              =    -454.21340689 Ry
     estimated scf accuracy    <      30.48174903 Ry

     iteration # 11     ecut=   124.00 Ry     beta= 0.70
     Davidson diagonalization with overlap
     ethr =  3.14E-03,  avg # of iterations =  2.0

     negative rho (up, down):  7.247E-04 0.000E+00

     total cpu time spent up to now is       13.6 secs

     total energy              =    -446.81278500 Ry
     estimated scf accuracy    <      24.89883000 Ry

     iteration # 12     ecut=   124.00 Ry     beta= 0.70
     Davidson diagonalization with overlap
     ethr =  3.14E-03,  avg # of iterations =  6.0

     negative rho (up, down):  7.758E-04 0.000E+00

     total cpu time spent up to now is       15.2 secs

     total energy              =    -448.57082726 Ry
     estimated scf accuracy    <       0.85434872 Ry

     iteration # 13     ecut=   124.00 Ry     beta= 0.70
     Davidson diagonalization with overlap
     ethr =  3.05E-03,  avg # of iterations =  2.0

     negative rho (up, down):  4.507E-04 0.000E+00

     total cpu time spent up to now is       16.2 secs

     total energy              =    -448.50736048 Ry
     estimated scf accuracy    <       0.72085554 Ry

     iteration # 14     ecut=   124.00 Ry     beta= 0.70
     Davidson diagonalization with overlap
     ethr =  2.57E-03,  avg # of iterations =  2.5

     negative rho (up, down):  5.422E-04 0.000E+00

     total cpu time spent up to now is       17.2 secs

     total energy              =    -448.59997488 Ry
     estimated scf accuracy    <       0.48171469 Ry

     iteration # 15     ecut=   124.00 Ry     beta= 0.70
     Davidson diagonalization with overlap
     ethr =  1.72E-03,  avg # of iterations =  1.0

     negative rho (up, down):  5.742E-04 0.000E+00

     total cpu time spent up to now is       18.1 secs

     total energy              =    -448.57893931 Ry
     estimated scf accuracy    <       0.23194855 Ry

     iteration # 16     ecut=   124.00 Ry     beta= 0.70
     Davidson diagonalization with overlap
     ethr =  8.28E-04,  avg # of iterations =  1.4

     negative rho (up, down):  5.544E-04 0.000E+00

     total cpu time spent up to now is       19.0 secs

     total energy              =    -448.59247956 Ry
     estimated scf accuracy    <       0.05717809 Ry

     iteration # 17     ecut=   124.00 Ry     beta= 0.70
     Davidson diagonalization with overlap
     ethr =  2.04E-04,  avg # of iterations =  2.0

     negative rho (up, down):  4.758E-04 0.000E+00

     total cpu time spent up to now is       20.0 secs

     total energy              =    -448.61159881 Ry
     estimated scf accuracy    <       0.08355613 Ry

     iteration # 18     ecut=   124.00 Ry     beta= 0.70
     Davidson diagonalization with overlap
     ethr =  2.04E-04,  avg # of iterations =  1.0

     negative rho (up, down):  3.797E-04 0.000E+00

     total cpu time spent up to now is       20.9 secs

     total energy              =    -448.63097961 Ry
     estimated scf accuracy    <       0.13573060 Ry

     iteration # 19     ecut=   124.00 Ry     beta= 0.70
     Davidson diagonalization with overlap
     ethr =  2.04E-04,  avg # of iterations =  1.4

     negative rho (up, down):  8.156E-04 0.000E+00

     total cpu time spent up to now is       21.8 secs

     total energy              =    -448.56351091 Ry
     estimated scf accuracy    <       0.18656695 Ry

     iteration # 20     ecut=   124.00 Ry     beta= 0.70
     Davidson diagonalization with overlap
     ethr =  2.04E-04,  avg # of iterations =  2.3

     negative rho (up, down):  1.001E-03 0.000E+00

     total cpu time spent up to now is       22.9 secs

     total energy              =    -448.56904107 Ry
     estimated scf accuracy    <       0.02087682 Ry

     iteration # 21     ecut=   124.00 Ry     beta= 0.70
     Davidson diagonalization with overlap
     ethr =  7.46E-05,  avg # of iterations =  3.6

     negative rho (up, down):  9.641E-04 0.000E+00

     total cpu time spent up to now is       24.0 secs

     total energy              =    -448.57430321 Ry
     estimated scf accuracy    <       0.00458192 Ry

     iteration # 22     ecut=   124.00 Ry     beta= 0.70
     Davidson diagonalization with overlap
     ethr =  1.64E-05,  avg # of iterations =  2.0

     negative rho (up, down):  9.631E-04 0.000E+00

     total cpu time spent up to now is       25.0 secs

     total energy              =    -448.57468566 Ry
     estimated scf accuracy    <       0.00017715 Ry

     iteration # 23     ecut=   124.00 Ry     beta= 0.70
     Davidson diagonalization with overlap
     ethr =  6.33E-07,  avg # of iterations =  4.4

     negative rho (up, down):  9.666E-04 0.000E+00

     total cpu time spent up to now is       26.2 secs

     total energy              =    -448.57474538 Ry
     estimated scf accuracy    <       0.00002168 Ry

     iteration # 24     ecut=   124.00 Ry     beta= 0.70
     Davidson diagonalization with overlap
     ethr =  7.74E-08,  avg # of iterations =  3.7

     negative rho (up, down):  9.687E-04 0.000E+00

     total cpu time spent up to now is       27.3 secs

     total energy              =    -448.57475109 Ry
     estimated scf accuracy    <       0.00001792 Ry

     iteration # 25     ecut=   124.00 Ry     beta= 0.70
     Davidson diagonalization with overlap
     ethr =  6.40E-08,  avg # of iterations =  1.0

     negative rho (up, down):  9.689E-04 0.000E+00

     total cpu time spent up to now is       28.2 secs

     total energy              =    -448.57475219 Ry
     estimated scf accuracy    <       0.00000032 Ry

     iteration # 26     ecut=   124.00 Ry     beta= 0.70
     Davidson diagonalization with overlap
     ethr =  1.15E-09,  avg # of iterations =  4.8

     negative rho (up, down):  9.687E-04 0.000E+00

     total cpu time spent up to now is       29.5 secs

     total energy              =    -448.57475245 Ry
     estimated scf accuracy    <       0.00000079 Ry

     iteration # 27     ecut=   124.00 Ry     beta= 0.70
     Davidson diagonalization with overlap
     ethr =  1.15E-09,  avg # of iterations =  1.6

     negative rho (up, down):  9.686E-04 0.000E+00

     total cpu time spent up to now is       30.4 secs

     total energy              =    -448.57475248 Ry
     estimated scf accuracy    <       0.00000003 Ry

     iteration # 28     ecut=   124.00 Ry     beta= 0.70
     Davidson diagonalization with overlap
     ethr =  9.00E-11,  avg # of iterations =  4.0

     negative rho (up, down):  9.687E-04 0.000E+00

     total cpu time spent up to now is       31.5 secs

     End of self-consistent calculation

          k = 0.0000 0.0000 0.0000 (  3743 PWs)   bands (ev):

   -67.5078 -37.2221 -33.5730 -33.5730 -33.5730 -13.2871 -13.2871 -13.2871
    11.6669  15.1569  15.1569  18.3062  18.3062  18.3062  20.8933  20.8933
    23.0654  23.0654

          k = 0.0000 0.0000 0.0909 (  3743 PWs)   bands (ev):

   -67.5074 -37.2196 -33.5759 -33.5724 -33.5724 -13.3263 -13.2849 -13.2849
    11.8539  15.2481  15.2647  18.2925  18.2925  18.3485  20.7713  20.9403
    22.7815  22.7815

          k = 0.0000 0.0000 0.1818 (  3707 PWs)   bands (ev):

   -67.5063 -37.2127 -33.5838 -33.5708 -33.5708 -13.4307 -13.2792 -13.2792
    12.3935  15.5154  15.5488  18.2619  18.2619  18.4670  20.4197  21.0509
    22.1237  22.1237

          k = 0.0000 0.0000 0.2727 (  3683 PWs)   bands (ev):

   -67.5048 -37.2037 -33.5941 -33.5688 -33.5688 -13.5653 -13.2716 -13.2716
    13.2227  15.8908  15.9373  18.2380  18.2380  18.6358  19.8839  21.1141
    21.3976  21.3976

          k = 0.0000 0.0000 0.3636 (  3663 PWs)   bands (ev):

   -67.5034 -37.1956 -33.6033 -33.5670 -33.5670 -13.6870 -13.2647 -13.2647
    14.2281  16.0952  16.4627  18.2383  18.2383  18.8082  19.2506  20.8022
    20.8022  20.9465

          k = 0.0000 0.0000 0.4545 (  3680 PWs)   bands (ev):

   -67.5026 -37.1907 -33.6088 -33.5659 -33.5659 -13.7584 -13.2605 -13.2605
    15.2086  15.9251  16.9389  18.2532  18.2532  18.7089  18.9210  20.4638
    20.4638  20.6284

          k = 0.0000 0.0909 0.0909 (  3721 PWs)   bands (ev):

   -67.5070 -37.2167 -33.5778 -33.5733 -33.5718 -13.3285 -13.3190 -13.2826
    12.0365  15.3401  15.3676  18.1979  18.2702  18.4592  20.7544  20.9066
    22.4687  22.4995

          k = 0.0000 0.0909 0.1818 (  3700 PWs)   bands (ev):

   -67.5058 -37.2092 -33.5853 -33.5732 -33.5703 -13.4276 -13.3163 -13.2765
    12.5624  15.5866  15.6583  18.1074  18.2165  18.5935  20.4839  21.0034
    21.8615  21.8927

          k = 0.0000 0.0909 0.2727 (  3686 PWs)   bands (ev):

   -67.5044 -37.1994 -33.5957 -33.5724 -33.5683 -13.5604 -13.3075 -13.2685
    13.3658  15.9315  16.0470  18.0607  18.1577  18.6901  20.0272  20.9902
    21.3040  21.3306

          k = 0.0000 0.0909 0.3636 (  3664 PWs)   bands (ev):

   -67.5030 -37.1904 -33.6051 -33.5717 -33.5665 -13.6806 -13.2993 -13.2612
    14.3302  16.1404  16.5135  18.0726  18.1038  18.6941  19.5105  20.5271
    20.9575  21.1768

          k = 0.0000 0.0909 0.4545 (  3664 PWs)   bands (ev):

   -67.5022 -37.1851 -33.6107 -33.5712 -33.5654 -13.7512 -13.2945 -13.2568
    15.2571  15.9636  16.9411  18.0242  18.1217  18.6254  19.1471  20.2099
    20.8103  20.9825

          k = 0.0000 0.1818 0.1818 (  3687 PWs)   bands (ev):

   -67.5047 -37.1999 -33.5908 -33.5780 -33.5688 -13.4304 -13.4037 -13.2695
    13.0430  15.7562  15.9794  17.9090  18.1151  18.6850  20.5465  20.9547
    21.2876  21.5246

          k = 0.0000 0.1818 0.2727 (  3673 PWs)   bands (ev):

   -67.5032 -37.1877 -33.6003 -33.5817 -33.5669 -13.5477 -13.4025 -13.2603
    13.7576  15.9634  16.4153  17.7728  18.0239  18.6001  20.3425  20.6937
    21.1371  21.3249

          k = 0.0000 0.1818 0.3636 (  3679 PWs)   bands (ev):

   -67.5019 -37.1765 -33.6099 -33.5842 -33.5652 -13.6637 -13.3915 -13.2518
    14.5719  16.0682  16.8484  17.7351  18.0057  18.3591  19.9988  20.3237
    21.3044  21.3528

          k = 0.0000 0.1818 0.4545 (  3671 PWs)   bands (ev):

   -67.5011 -37.1699 -33.6157 -33.5856 -33.5642 -13.7320 -13.3848 -13.2468
    15.2862  15.9178  17.1477  17.7990  18.0622  18.1054  19.8106  20.0581
    21.3585  21.4672

          k = 0.0000 0.2727 0.2727 (  3676 PWs)   bands (ev):

   -67.5018 -37.1724 -33.6078 -33.5924 -33.5651 -13.5438 -13.5126 -13.2495
    14.2869  15.9550  16.9329  17.5373  17.9983  18.2966  20.4490  20.6001
    21.0363  21.5233

          k = 0.0000 0.2727 0.3636 (  3676 PWs)   bands (ev):

   -67.5004 -37.1582 -33.6166 -33.6004 -33.5635 -13.6416 -13.5104 -13.2396
    14.7934  15.8642  17.4149  17.4401  17.9276  18.2092  20.2540  20.5814
    21.2430  21.8386

          k = 0.0000 0.2727 0.4545 (  3675 PWs)   bands (ev):

   -67.4996 -37.1498 -33.6225 -33.6043 -33.5625 -13.7067 -13.5015 -13.2336
    15.1371  15.7202  17.4328  17.6272  17.7206  18.6282  19.9946  20.5235
    21.5153  22.1213

          k = 0.0000 0.3636 0.3636 (  3666 PWs)   bands (ev):

   -67.4991 -37.1413 -33.6235 -33.6144 -33.5619 -13.6287 -13.6107 -13.2282
    14.8904  15.6518  17.2047  17.5349  18.1225  18.6920  20.4181  20.9821
    21.0736  22.2970

          k = 0.0000 0.3636 0.4545 (  3666 PWs)   bands (ev):

   -67.4983 -37.1312 -33.6288 -33.6215 -33.5610 -13.6835 -13.6071 -13.2215
    14.9064  15.5206  17.1478  17.2630  18.5430  19.4043  20.1660  21.0606
    21.3332  22.6411

          k = 0.0000 0.4545 0.4545 (  3656 PWs)   bands (ev):

   -67.4975 -37.1201 -33.6328 -33.6315 -33.5601 -13.6707 -13.6682 -13.2143
    14.7544  15.4044  17.0117  17.0505  19.2937  19.8555  20.6439  20.8510
    21.3548  22.9488

          k = 0.0909 0.0909 0.0909 (  3707 PWs)   bands (ev):

   -67.5066 -37.2137 -33.5772 -33.5772 -33.5711 -13.3297 -13.3168 -13.3168
    12.2155  15.4496  15.4496  18.1731  18.1731  18.5495  20.8151  20.8151
    21.9990  22.7587

          k = 0.0909 0.0909 0.1818 (  3687 PWs)   bands (ev):

   -67.5054 -37.2056 -33.5859 -33.5756 -33.5708 -13.4243 -13.3160 -13.3109
    12.7299  15.6885  15.7363  18.0486  18.1079  18.6458  20.5516  20.9594
    21.4664  22.0991

          k = 0.0909 0.0909 0.2727 (  3687 PWs)   bands (ev):

   -67.5039 -37.1950 -33.5968 -33.5736 -33.5708 -13.5556 -13.3055 -13.3032
    13.5114  16.0599  16.0709  17.9865  18.0199  18.6405  20.1554  20.9199
    21.2579  21.3860

          k = 0.0909 0.0909 0.3636 (  3672 PWs)   bands (ev):

   -67.5026 -37.1853 -33.6066 -33.5716 -33.5709 -13.6746 -13.2962 -13.2956
    14.4406  16.2390  16.5102  17.9105  18.0284  18.5384  19.7164  20.6245
    20.8182  21.3877

          k = 0.0909 0.0909 0.4545 (  3662 PWs)   bands (ev):

   -67.5018 -37.1796 -33.6123 -33.5710 -33.5705 -13.7445 -13.2919 -13.2898
    15.3229  16.0323  16.9054  17.7717  18.1686  18.4325  19.4057  20.3311
    20.5059  21.5174

          k = 0.0909 0.1818 0.1818 (  3684 PWs)   bands (ev):

   -67.5043 -37.1959 -33.5901 -33.5802 -33.5712 -13.4259 -13.4014 -13.3058
    13.2059  15.8765  16.0342  17.8683  17.9888  18.6082  20.6272  20.9217
    21.1542  21.7793

          k = 0.0909 0.1818 0.2727 (  3687 PWs)   bands (ev):

   -67.5028 -37.1832 -33.6003 -33.5825 -33.5710 -13.5431 -13.3993 -13.2959
    13.9104  16.0973  16.4370  17.7257  17.8877  18.4012  20.4481  20.8330
    21.1717  21.3984

          k = 0.0909 0.1818 0.3636 (  3673 PWs)   bands (ev):

   -67.5015 -37.1716 -33.6106 -33.5841 -33.5701 -13.6584 -13.3882 -13.2867
    14.7058  16.2125  16.7931  17.6493  17.8918  18.1899  20.1707  20.4588
    21.0287  21.7139

          k = 0.0909 0.1818 0.4545 (  3677 PWs)   bands (ev):

   -67.5007 -37.1647 -33.6168 -33.5851 -33.5694 -13.7262 -13.3815 -13.2811
    15.3968  16.0418  17.0271  17.5893  17.9942  18.1538  19.9794  20.1430
    20.8093  22.1651

          k = 0.0909 0.2727 0.2727 (  3682 PWs)   bands (ev):

   -67.5014 -37.1678 -33.6071 -33.5933 -33.5698 -13.5384 -13.5103 -13.2848
    14.4473  16.0946  16.9425  17.4965  17.8429  18.0605  20.5816  20.7717
    21.0179  21.6846

          k = 0.0909 0.2727 0.3636 (  3673 PWs)   bands (ev):

   -67.5000 -37.1535 -33.6163 -33.6004 -33.5686 -13.6373 -13.5074 -13.2746
    14.9505  16.0046  17.3367  17.3989  17.8078  18.0478  20.3473  20.6815
    21.1040  22.1562

          k = 0.0909 0.2727 0.4545 (  3669 PWs)   bands (ev):

   -67.4992 -37.1450 -33.6228 -33.6038 -33.5677 -13.7024 -13.4986 -13.2684
    15.2775  15.8598  17.3395  17.4136  17.7933  18.5143  20.0393  20.6394
    21.0384  22.6970

          k = 0.0909 0.3636 0.3636 (  3679 PWs)   bands (ev):

   -67.4987 -37.1368 -33.6227 -33.6145 -33.5671 -13.6247 -13.6085 -13.2634
    15.0481  15.7918  17.1725  17.4373  18.0776  18.4963  20.3645  20.9372
    21.0925  22.6588

          k = 0.0909 0.3636 0.4545 (  3676 PWs)   bands (ev):

   -67.4979 -37.1268 -33.6284 -33.6209 -33.5662 -13.6804 -13.6046 -13.2567
    15.0539  15.6636  17.1142  17.2084  18.4667  19.2077  20.1074  20.9051
    21.1998  22.9050

          k = 0.0909 0.4545 0.4545 (  3657 PWs)   bands (ev):

   -67.4971 -37.1160 -33.6320 -33.6308 -33.5652 -13.6683 -13.6660 -13.2497
    14.9033  15.5483  16.9893  17.0234  19.2375  19.7236  20.3231  20.4561
    21.4385  23.1513

          k = 0.1818 0.1818 0.1818 (  3686 PWs)   bands (ev):

   -67.5032 -37.1852 -33.5884 -33.5884 -33.5756 -13.4208 -13.3953 -13.3953
    13.6653  16.1897  16.1897  17.7605  17.7605  18.3163  20.8242  20.8242
    21.2263  22.0533

          k = 0.1818 0.1818 0.2727 (  3673 PWs)   bands (ev):

   -67.5017 -37.1712 -33.6009 -33.5862 -33.5794 -13.5310 -13.3938 -13.3874
    14.3308  16.4184  16.5281  17.6109  17.6177  17.9606  20.6757  20.9323
    21.3684  21.5761

          k = 0.1818 0.1818 0.3636 (  3677 PWs)   bands (ev):

   -67.5004 -37.1583 -33.6127 -33.5842 -33.5825 -13.6442 -13.3801 -13.3787
    15.0463  16.5575  16.6716  17.4705  17.6651  17.8783  20.5177  20.6644
    20.8365  22.2127

          k = 0.1818 0.1818 0.4545 (  3680 PWs)   bands (ev):

   -67.4996 -37.1506 -33.6197 -33.5844 -33.5829 -13.7108 -13.3757 -13.3696
    15.6236  16.2603  16.8697  17.3503  17.8074  18.1103  20.2210  20.4220
    20.5386  22.6054

          k = 0.1818 0.2727 0.2727 (  3680 PWs)   bands (ev):

   -67.5003 -37.1554 -33.6052 -33.5959 -33.5821 -13.5241 -13.5041 -13.3787
    14.8940  16.4740  16.9624  17.3936  17.4933  17.5853  20.7226  20.9358
    21.2446  22.1224

          k = 0.1818 0.2727 0.3636 (  3675 PWs)   bands (ev):

   -67.4989 -37.1408 -33.6160 -33.6004 -33.5821 -13.6257 -13.4991 -13.3677
    15.3856  16.3707  17.1089  17.2780  17.5879  17.7073  20.4734  20.7513
    21.1222  22.4298

          k = 0.1818 0.2727 0.4545 (  3670 PWs)   bands (ev):

   -67.4982 -37.1321 -33.6237 -33.6022 -33.5817 -13.6906 -13.4909 -13.3609
    15.6542  16.1980  17.0595  17.2304  17.7056  18.2470  20.0964  20.5617
    21.0167  22.6839

          k = 0.1818 0.3636 0.3636 (  3680 PWs)   bands (ev):

   -67.4976 -37.1246 -33.6207 -33.6146 -33.5808 -13.6138 -13.6025 -13.3568
    15.4973  16.1553  17.0932  17.2311  17.9363  18.0079  20.3288  20.6104
    21.4211  22.6109

          k = 0.1818 0.3636 0.4545 (  3677 PWs)   bands (ev):

   -67.4968 -37.1150 -33.6274 -33.6192 -33.5800 -13.6721 -13.5979 -13.3503
    15.4715  16.0346  17.0342  17.0948  18.2079  18.7070  20.0350  20.4266
    21.5086  22.8858

          k = 0.1818 0.4545 0.4545 (  3667 PWs)   bands (ev):

   -67.4961 -37.1048 -33.6299 -33.6290 -33.5790 -13.6617 -13.6601 -13.3439
    15.3293  15.9307  16.9379  16.9639  18.9564  19.1106  19.9215  20.1058
    21.7266  23.2103

          k = 0.2727 0.2727 0.2727 (  3662 PWs)   bands (ev):

   -67.4988 -37.1391 -33.6028 -33.6028 -33.5946 -13.5094 -13.4961 -13.4961
    15.4970  16.9706  16.9706  17.0509  17.2752  17.2752  20.7415  20.7415
    21.7695  21.7695

          k = 0.2727 0.2727 0.3636 (  3682 PWs)   bands (ev):

   -67.4975 -37.1241 -33.6162 -33.6005 -33.5991 -13.6108 -13.4887 -13.4873
    15.9412  16.6548  16.9517  17.1880  17.3010  17.5409  20.4717  20.5036
    21.5955  22.3300

          k = 0.2727 0.2727 0.4545 (  3671 PWs)   bands (ev):

   -67.4967 -37.1151 -33.6249 -33.6010 -33.5992 -13.6753 -13.4843 -13.4771
    16.0436  16.4449  16.9259  17.1467  17.5471  18.0531  20.0333  20.3587
    21.5342  22.7191

          k = 0.2727 0.3636 0.3636 (  3675 PWs)   bands (ev):

   -67.4962 -37.1086 -33.6180 -33.6148 -33.5988 -13.5996 -13.5946 -13.4775
    16.1479  16.5344  17.0100  17.1468  17.4527  17.7018  20.2759  20.2900
    21.9400  22.5530

          k = 0.2727 0.3636 0.4545 (  3664 PWs)   bands (ev):

   -67.4954 -37.0994 -33.6262 -33.6169 -33.5981 -13.6612 -13.5891 -13.4712
    16.0594  16.4470  16.9663  17.0604  17.7882  18.1735  19.9169  20.1831
    22.0110  22.9233

          k = 0.2727 0.4545 0.4545 (  3675 PWs)   bands (ev):

   -67.4947 -37.0901 -33.6271 -33.6267 -33.5969 -13.6531 -13.6524 -13.4657
    15.9612  16.4093  16.8981  16.9366  18.3665  18.3822  19.7195  20.0126
    22.2151  23.2519

          k = 0.3636 0.3636 0.3636 (  3677 PWs)   bands (ev):

   -67.4949 -37.0939 -33.6156 -33.6156 -33.6148 -13.5873 -13.5873 -13.5862
    16.4772  16.9730  16.9730  17.0247  17.4236  17.4236  20.0872  20.0872
    22.5589  22.5589

          k = 0.3636 0.3636 0.4545 (  3671 PWs)   bands (ev):

   -67.4941 -37.0851 -33.6251 -33.6152 -33.6141 -13.6512 -13.5829 -13.5788
    16.4788  16.7003  17.0220  17.1802  17.4685  17.8179  19.8045  19.9985
    22.5733  23.0261

          k = 0.3636 0.4545 0.4545 (  3672 PWs)   bands (ev):

   -67.4934 -37.0765 -33.6245 -33.6245 -33.6133 -13.6453 -13.6452 -13.5759
    16.5997  16.8046  16.9209  17.0665  17.7562  17.8010  19.6702  19.8535
    22.8258  23.2854

          k = 0.4545 0.4545 0.4545 (  3656 PWs)   bands (ev):

   -67.4926 -37.0684 -33.6232 -33.6230 -33.6230 -13.6411 -13.6411 -13.6402
    16.8713  17.0484  17.0484  17.3631  17.3631  17.4229  19.6587  19.6587
    23.3046  23.3046

     the Fermi energy is    19.4120 ev

!    total energy              =    -448.57475249 Ry
     estimated scf accuracy    <          6.2E-09 Ry
     smearing contrib. (-TS)   =      -0.00004122 Ry
     internal energy E=F+TS    =    -448.57471126 Ry

     The total energy is F=E-TS. E is the sum of the following terms:
     one-electron contribution =    -140.19235130 Ry
     hartree contribution      =      87.90769956 Ry
     xc contribution           =     -53.04273579 Ry
     ewald contribution        =    -267.09177061 Ry
     one-center paw contrib.   =     -76.15555311 Ry

     convergence has been achieved in  28 iterations

     negative rho (up, down):  9.687E-04 0.000E+00

     Forces acting on atoms (cartesian axes, Ry/au):

     atom    1 type  1   force =     0.00000000    0.00000000    0.00000000
     atom    2 type  2   force =     0.00000000    0.00000000    0.00000000

     Total force =     0.000000     Total SCF correction =     0.000000


     Computing stress (Cartesian axis) and pressure


     negative rho (up, down):  9.687E-04 0.000E+00
          total   stress  (Ry/bohr**3)                   (kbar)     P=      232.68
   0.00158174   0.00000000   0.00000000          232.68        0.00        0.00
   0.00000000   0.00158174   0.00000000            0.00      232.68        0.00
   0.00000000   0.00000000   0.00158174            0.00        0.00      232.68


     Writing all to output data dir ./TiFe.save/ :
     XML data file, charge density, pseudopotentials, collected wavefunctions

     init_run     :      1.47s CPU      1.53s WALL (       1 calls)
     electrons    :     28.07s CPU     29.80s WALL (       1 calls)
     forces       :      0.23s CPU      0.25s WALL (       1 calls)
     stress       :      1.28s CPU      1.35s WALL (       1 calls)

     Called by init_run:
     wfcinit      :      0.31s CPU      0.32s WALL (       1 calls)
     potinit      :      0.37s CPU      0.37s WALL (       1 calls)
     hinit0       :      0.64s CPU      0.65s WALL (       1 calls)

     Called by electrons:
     c_bands      :     17.56s CPU     17.98s WALL (      28 calls)
     sum_band     :      5.45s CPU      6.01s WALL (      28 calls)
     v_of_rho     :      0.50s CPU      0.55s WALL (      29 calls)
     newd         :      3.04s CPU      3.55s WALL (      29 calls)
     PAW_pot      :      1.58s CPU      1.76s WALL (      29 calls)
     mix_rho      :      0.06s CPU      0.07s WALL (      28 calls)

     Called by c_bands:
     init_us_2    :      0.48s CPU      0.50s WALL (    3304 calls)
     cegterg      :     16.70s CPU     17.08s WALL (    1568 calls)

     Called by *egterg:
     cdiaghg      :      1.99s CPU      2.03s WALL (    5591 calls)
     h_psi        :     12.62s CPU     12.93s WALL (    5647 calls)
     s_psi        :      0.34s CPU      0.35s WALL (    5647 calls)
     g_psi        :      0.07s CPU      0.07s WALL (    4023 calls)

     Called by h_psi:
     h_psi:calbec :      0.68s CPU      0.70s WALL (    5647 calls)
     vloc_psi     :     11.51s CPU     11.80s WALL (    5647 calls)
     add_vuspsi   :      0.35s CPU      0.36s WALL (    5647 calls)

     General routines
     calbec       :      0.96s CPU      0.98s WALL (    8167 calls)
     fft          :      0.79s CPU      0.85s WALL (     400 calls)
     ffts         :      0.29s CPU      0.29s WALL (      57 calls)
     fftw         :     10.99s CPU     11.25s WALL (  174810 calls)
     interpolate  :      0.31s CPU      0.32s WALL (      29 calls)

     Parallel routines

     PWSCF        :     31.35s CPU     33.37s WALL


   This run was terminated on:   0:37:42  25Oct2025            

=------------------------------------------------------------------------------=
   JOB DONE.
=------------------------------------------------------------------------------=
