
     Program PWSCF v.7.4 starts on 25Oct2025 at  0:38:50 

     This program is part of the open-source Quantum ESPRESSO suite
     for quantum simulation of materials; please cite
         "P. Giannozzi et al., J. Phys.:Condens. Matter 21 395502 (2009);
         "P. Giannozzi et al., J. Phys.:Condens. Matter 29 465901 (2017);
         "P. Giannozzi et al., J. Chem. Phys. 152 154105 (2020);
          URL http://www.quantum-espresso.org", 
     in publications or presentations arising from this work. More details at
     http://www.quantum-espresso.org/quote

     Parallel version (MPI & OpenMP), running on       8 processor cores
     Number of MPI processes:                 8
     Threads/MPI process:                     1

     MPI processes distributed on     1 nodes
     210507 MiB available memory on the printing compute node when the environment starts

     Reading input from TiFe_8.in

     Current dimensions of program PWSCF are:
     Max number of different atomic species (ntypx) = 10
     Max number of k-points (npk) =  40000
     Max angular momentum in pseudopotentials (lmaxx) =  4
     file Fe.pbe-spn-kjpaw_psl.0.2.1.UPF: wavefunction(s)  3D renormalized

     IMPORTANT: XC functional enforced from input :
     Exchange-correlation= PBE
                           (   1   4   3   4   0   0   0)
     Any further DFT definition will be discarded
     Please, verify this is what you really want

     Message from routine setup:
     using ibrav=0 with symmetry is DISCOURAGED, use correct ibrav instead

     R & G space division:  proc/nbgrp/npool/nimage =       8
     Subspace diagonalization in iterative solution of the eigenvalue problem:
     a serial algorithm will be used


     Parallelization info
     --------------------
     sticks:   dense  smooth     PW     G-vecs:    dense   smooth      PW
     Min         518     148     43                25072     3830     617
     Max         519     149     44                25077     3833     620
     Sum        4149    1185    349               200597    30647    4945

     Using Slab Decomposition



     bravais-lattice index     =            0
     lattice parameter (alat)  =       5.4777  a.u.
     unit-cell volume          =     164.3605 (a.u.)^3
     number of atoms/cell      =            2
     number of atomic types    =            2
     number of electrons       =        28.00
     number of Kohn-Sham states=           18
     kinetic-energy cutoff     =     124.0000  Ry
     charge density cutoff     =    1736.0000  Ry
     scf convergence threshold =      1.0E-08
     mixing beta               =       0.7000
     number of iterations used =            8  plain     mixing
     Exchange-correlation= PBE
                           (   1   4   3   4   0   0   0)

     celldm(1)=   5.477711  celldm(2)=   0.000000  celldm(3)=   0.000000
     celldm(4)=   0.000000  celldm(5)=   0.000000  celldm(6)=   0.000000

     crystal axes: (cart. coord. in units of alat)
               a(1) = (   1.000000   0.000000   0.000000 )  
               a(2) = (   0.000000   1.000000   0.000000 )  
               a(3) = (   0.000000   0.000000   1.000000 )  

     reciprocal axes: (cart. coord. in units 2 pi/alat)
               b(1) = (  1.000000  0.000000  0.000000 )  
               b(2) = (  0.000000  1.000000  0.000000 )  
               b(3) = (  0.000000  0.000000  1.000000 )  


     PseudoPot. # 1 for Fe read from file:
     ../pseudos/Fe.pbe-spn-kjpaw_psl.0.2.1.UPF
     MD5 check sum: e86618425769142926afa95317d90200
     Pseudo is Projector augmented-wave + core cor, Zval = 16.0
     Generated using "atomic" code by A. Dal Corso  v.5.0.99 svn rev. 10869
     Shape of augmentation charge: PSQ
     Using radial grid of 1191 points,  6 beta functions with: 
                l(1) =   0
                l(2) =   0
                l(3) =   1
                l(4) =   1
                l(5) =   2
                l(6) =   2
     Q(r) pseudized with 0 coefficients 


     PseudoPot. # 2 for Ti read from file:
     ../pseudos/ti_pbe_v1.4.uspp.F.UPF
     MD5 check sum: 88a00a6731bd790ddea75d31a80cb452
     Pseudo is Ultrasoft + core correction, Zval = 12.0
     Generated by new atomic code, or converted to UPF format
     Using radial grid of  851 points,  6 beta functions with: 
                l(1) =   0
                l(2) =   0
                l(3) =   1
                l(4) =   1
                l(5) =   2
                l(6) =   2
     Q(r) pseudized with  6 coefficients,  rinner =    1.000   1.000   1.000
                                                       1.000   1.000

     atomic species   valence    mass     pseudopotential
     Fe               16.00    55.84500     Fe( 1.00)
     Ti               12.00    47.86700     Ti( 1.00)

     48 Sym. Ops., with inversion, found



   Cartesian axes

     site n.     atom                  positions (alat units)
         1        Fe     tau(   1) = (   0.5000000   0.5000000   0.5000000  )
         2        Ti     tau(   2) = (   0.0000000   0.0000000   0.0000000  )

     number of k points=    56  Marzari-Vanderbilt smearing, width (Ry)=  0.0050
                       cart. coord. in units 2pi/alat
        k(    1) = (   0.0000000   0.0000000   0.0000000), wk =   0.0015026
        k(    2) = (   0.0000000   0.0000000   0.0909091), wk =   0.0090158
        k(    3) = (   0.0000000   0.0000000   0.1818182), wk =   0.0090158
        k(    4) = (   0.0000000   0.0000000   0.2727273), wk =   0.0090158
        k(    5) = (   0.0000000   0.0000000   0.3636364), wk =   0.0090158
        k(    6) = (   0.0000000   0.0000000   0.4545455), wk =   0.0090158
        k(    7) = (   0.0000000   0.0909091   0.0909091), wk =   0.0180316
        k(    8) = (   0.0000000   0.0909091   0.1818182), wk =   0.0360631
        k(    9) = (   0.0000000   0.0909091   0.2727273), wk =   0.0360631
        k(   10) = (   0.0000000   0.0909091   0.3636364), wk =   0.0360631
        k(   11) = (   0.0000000   0.0909091   0.4545455), wk =   0.0360631
        k(   12) = (   0.0000000   0.1818182   0.1818182), wk =   0.0180316
        k(   13) = (   0.0000000   0.1818182   0.2727273), wk =   0.0360631
        k(   14) = (   0.0000000   0.1818182   0.3636364), wk =   0.0360631
        k(   15) = (   0.0000000   0.1818182   0.4545455), wk =   0.0360631
        k(   16) = (   0.0000000   0.2727273   0.2727273), wk =   0.0180316
        k(   17) = (   0.0000000   0.2727273   0.3636364), wk =   0.0360631
        k(   18) = (   0.0000000   0.2727273   0.4545455), wk =   0.0360631
        k(   19) = (   0.0000000   0.3636364   0.3636364), wk =   0.0180316
        k(   20) = (   0.0000000   0.3636364   0.4545455), wk =   0.0360631
        k(   21) = (   0.0000000   0.4545455   0.4545455), wk =   0.0180316
        k(   22) = (   0.0909091   0.0909091   0.0909091), wk =   0.0120210
        k(   23) = (   0.0909091   0.0909091   0.1818182), wk =   0.0360631
        k(   24) = (   0.0909091   0.0909091   0.2727273), wk =   0.0360631
        k(   25) = (   0.0909091   0.0909091   0.3636364), wk =   0.0360631
        k(   26) = (   0.0909091   0.0909091   0.4545455), wk =   0.0360631
        k(   27) = (   0.0909091   0.1818182   0.1818182), wk =   0.0360631
        k(   28) = (   0.0909091   0.1818182   0.2727273), wk =   0.0721262
        k(   29) = (   0.0909091   0.1818182   0.3636364), wk =   0.0721262
        k(   30) = (   0.0909091   0.1818182   0.4545455), wk =   0.0721262
        k(   31) = (   0.0909091   0.2727273   0.2727273), wk =   0.0360631
        k(   32) = (   0.0909091   0.2727273   0.3636364), wk =   0.0721262
        k(   33) = (   0.0909091   0.2727273   0.4545455), wk =   0.0721262
        k(   34) = (   0.0909091   0.3636364   0.3636364), wk =   0.0360631
        k(   35) = (   0.0909091   0.3636364   0.4545455), wk =   0.0721262
        k(   36) = (   0.0909091   0.4545455   0.4545455), wk =   0.0360631
        k(   37) = (   0.1818182   0.1818182   0.1818182), wk =   0.0120210
        k(   38) = (   0.1818182   0.1818182   0.2727273), wk =   0.0360631
        k(   39) = (   0.1818182   0.1818182   0.3636364), wk =   0.0360631
        k(   40) = (   0.1818182   0.1818182   0.4545455), wk =   0.0360631
        k(   41) = (   0.1818182   0.2727273   0.2727273), wk =   0.0360631
        k(   42) = (   0.1818182   0.2727273   0.3636364), wk =   0.0721262
        k(   43) = (   0.1818182   0.2727273   0.4545455), wk =   0.0721262
        k(   44) = (   0.1818182   0.3636364   0.3636364), wk =   0.0360631
        k(   45) = (   0.1818182   0.3636364   0.4545455), wk =   0.0721262
        k(   46) = (   0.1818182   0.4545455   0.4545455), wk =   0.0360631
        k(   47) = (   0.2727273   0.2727273   0.2727273), wk =   0.0120210
        k(   48) = (   0.2727273   0.2727273   0.3636364), wk =   0.0360631
        k(   49) = (   0.2727273   0.2727273   0.4545455), wk =   0.0360631
        k(   50) = (   0.2727273   0.3636364   0.3636364), wk =   0.0360631
        k(   51) = (   0.2727273   0.3636364   0.4545455), wk =   0.0721262
        k(   52) = (   0.2727273   0.4545455   0.4545455), wk =   0.0360631
        k(   53) = (   0.3636364   0.3636364   0.3636364), wk =   0.0120210
        k(   54) = (   0.3636364   0.3636364   0.4545455), wk =   0.0360631
        k(   55) = (   0.3636364   0.4545455   0.4545455), wk =   0.0360631
        k(   56) = (   0.4545455   0.4545455   0.4545455), wk =   0.0120210

     Dense  grid:   200597 G-vectors     FFT dimensions: (  75,  75,  75)

     Smooth grid:    30647 G-vectors     FFT dimensions: (  40,  40,  40)

     Estimated max dynamical RAM per process >     106.25 MB

     Estimated total dynamical RAM >     849.98 MB

     Check: negative core charge=   -0.000002

     Initial potential from superposition of free atoms

     starting charge      26.9995, renormalised to      28.0000

     negative rho (up, down):  1.329E-03 0.000E+00
     Starting wfcs are   23 randomized atomic wfcs
     Checking if some PAW data can be deallocated... 

     total cpu time spent up to now is        1.4 secs

     per-process dynamical memory:   134.5 Mb

     Self-consistent Calculation

     iteration #  1     ecut=   124.00 Ry     beta= 0.70
     Davidson diagonalization with overlap
     ethr =  1.00E-02,  avg # of iterations =  2.1

     negative rho (up, down):  6.277E-05 0.000E+00

     total cpu time spent up to now is        2.4 secs

     total energy              =    -435.59859775 Ry
     estimated scf accuracy    <      16.60054843 Ry

     iteration #  2     ecut=   124.00 Ry     beta= 0.70
     Davidson diagonalization with overlap
     ethr =  1.00E-02,  avg # of iterations =  6.1

     negative rho (up, down):  4.186E-05 0.000E+00

     total cpu time spent up to now is        4.1 secs

     total energy              =    -448.51807794 Ry
     estimated scf accuracy    <      63.15902641 Ry

     iteration #  3     ecut=   124.00 Ry     beta= 0.70
     Davidson diagonalization with overlap
     ethr =  1.00E-02,  avg # of iterations =  3.1

     negative rho (up, down):  2.718E-04 0.000E+00

     total cpu time spent up to now is        5.4 secs

     total energy              =    -448.52031719 Ry
     estimated scf accuracy    <      16.02874080 Ry

     iteration #  4     ecut=   124.00 Ry     beta= 0.70
     Davidson diagonalization with overlap
     ethr =  1.00E-02,  avg # of iterations =  2.2

     negative rho (up, down):  2.887E-04 0.000E+00

     total cpu time spent up to now is        6.4 secs

     total energy              =    -449.07535143 Ry
     estimated scf accuracy    <       4.20423859 Ry

     iteration #  5     ecut=   124.00 Ry     beta= 0.70
     Davidson diagonalization with overlap
     ethr =  1.00E-02,  avg # of iterations =  1.0

     negative rho (up, down):  2.800E-04 0.000E+00

     total cpu time spent up to now is        7.4 secs

     total energy              =    -449.00701560 Ry
     estimated scf accuracy    <       3.93030748 Ry

     iteration #  6     ecut=   124.00 Ry     beta= 0.70
     Davidson diagonalization with overlap
     ethr =  1.00E-02,  avg # of iterations =  1.0

     negative rho (up, down):  8.345E-04 0.000E+00

     total cpu time spent up to now is        8.3 secs

     WARNING: integrated charge=    27.97209326, expected=    28.00000000

     total energy              =    -448.16248745 Ry
     estimated scf accuracy    <       2.98525471 Ry

     iteration #  7     ecut=   124.00 Ry     beta= 0.70
     Davidson diagonalization with overlap
     ethr =  1.00E-02,  avg # of iterations =  2.1

     negative rho (up, down):  9.048E-04 0.000E+00

     total cpu time spent up to now is        9.3 secs

     WARNING: integrated charge=    27.97355938, expected=    28.00000000

     total energy              =    -448.60531152 Ry
     estimated scf accuracy    <       1.04362484 Ry

     iteration #  8     ecut=   124.00 Ry     beta= 0.70
     Davidson diagonalization with overlap
     ethr =  3.73E-03,  avg # of iterations =  1.1

     negative rho (up, down):  9.575E-04 0.000E+00

     total cpu time spent up to now is       10.2 secs

     WARNING: integrated charge=    27.97560567, expected=    28.00000000

     total energy              =    -448.61722629 Ry
     estimated scf accuracy    <       0.71103992 Ry

     iteration #  9     ecut=   124.00 Ry     beta= 0.70
     Davidson diagonalization with overlap
     ethr =  2.54E-03,  avg # of iterations =  1.1

     negative rho (up, down):  1.202E-03 0.000E+00

     total cpu time spent up to now is       11.1 secs

     WARNING: integrated charge=    27.99154986, expected=    28.00000000

     total energy              =    -448.76020396 Ry
     estimated scf accuracy    <       0.65441904 Ry

     iteration # 10     ecut=   124.00 Ry     beta= 0.70
     Davidson diagonalization with overlap
     ethr =  2.34E-03,  avg # of iterations =  3.5

     negative rho (up, down):  8.360E-04 0.000E+00

     total cpu time spent up to now is       12.2 secs

     WARNING: integrated charge=    27.99905632, expected=    28.00000000

     total energy              =    -448.28922010 Ry
     estimated scf accuracy    <       5.97954634 Ry

     iteration # 11     ecut=   124.00 Ry     beta= 0.70
     Davidson diagonalization with overlap
     ethr =  2.34E-03,  avg # of iterations =  3.3

     negative rho (up, down):  7.597E-04 0.000E+00

     total cpu time spent up to now is       13.3 secs

     WARNING: integrated charge=    28.00954937, expected=    28.00000000

     total energy              =    -448.58202335 Ry
     estimated scf accuracy    <       0.02379588 Ry

     iteration # 12     ecut=   124.00 Ry     beta= 0.70
     Davidson diagonalization with overlap
     ethr =  8.50E-05,  avg # of iterations =  4.9

     negative rho (up, down):  7.340E-04 0.000E+00

     total cpu time spent up to now is       14.5 secs

     WARNING: integrated charge=    28.01309873, expected=    28.00000000

     total energy              =    -448.60166163 Ry
     estimated scf accuracy    <       0.08265061 Ry

     iteration # 13     ecut=   124.00 Ry     beta= 0.70
     Davidson diagonalization with overlap
     ethr =  8.50E-05,  avg # of iterations =  2.3

     negative rho (up, down):  6.867E-04 0.000E+00

     total cpu time spent up to now is       15.4 secs

     WARNING: integrated charge=    28.02548279, expected=    28.00000000

     total energy              =    -448.60825544 Ry
     estimated scf accuracy    <       0.30599995 Ry

     iteration # 14     ecut=   124.00 Ry     beta= 0.70
     Davidson diagonalization with overlap
     ethr =  8.50E-05,  avg # of iterations =  1.0

     negative rho (up, down):  1.053E-03 0.000E+00

     total cpu time spent up to now is       16.4 secs

     WARNING: integrated charge=    27.99895461, expected=    28.00000000

     total energy              =    -448.54056428 Ry
     estimated scf accuracy    <       0.30063141 Ry

     iteration # 15     ecut=   124.00 Ry     beta= 0.70
     Davidson diagonalization with overlap
     ethr =  8.50E-05,  avg # of iterations =  4.9

     negative rho (up, down):  9.375E-04 0.000E+00

     total cpu time spent up to now is       17.7 secs

     WARNING: integrated charge=    27.99978740, expected=    28.00000000

     total energy              =    -448.57362799 Ry
     estimated scf accuracy    <       0.15672796 Ry

     iteration # 16     ecut=   124.00 Ry     beta= 0.70
     Davidson diagonalization with overlap
     ethr =  8.50E-05,  avg # of iterations =  3.5

     negative rho (up, down):  9.314E-04 0.000E+00

     total cpu time spent up to now is       18.7 secs

     WARNING: integrated charge=    28.00060548, expected=    28.00000000

     total energy              =    -448.58274015 Ry
     estimated scf accuracy    <       0.00025388 Ry

     iteration # 17     ecut=   124.00 Ry     beta= 0.70
     Davidson diagonalization with overlap
     ethr =  9.07E-07,  avg # of iterations =  5.3

     negative rho (up, down):  9.446E-04 0.000E+00

     total cpu time spent up to now is       20.2 secs

     WARNING: integrated charge=    27.99988860, expected=    28.00000000

     total energy              =    -448.58288099 Ry
     estimated scf accuracy    <       0.00140255 Ry

     iteration # 18     ecut=   124.00 Ry     beta= 0.70
     Davidson diagonalization with overlap
     ethr =  9.07E-07,  avg # of iterations =  2.0

     negative rho (up, down):  9.496E-04 0.000E+00

     total cpu time spent up to now is       21.1 secs

     WARNING: integrated charge=    27.99998891, expected=    28.00000000

     total energy              =    -448.58288166 Ry
     estimated scf accuracy    <       0.00037482 Ry

     iteration # 19     ecut=   124.00 Ry     beta= 0.70
     Davidson diagonalization with overlap
     ethr =  9.07E-07,  avg # of iterations =  2.5

     negative rho (up, down):  9.518E-04 0.000E+00

     total cpu time spent up to now is       22.2 secs

     WARNING: integrated charge=    27.99998441, expected=    28.00000000

     total energy              =    -448.58289426 Ry
     estimated scf accuracy    <       0.00003857 Ry

     iteration # 20     ecut=   124.00 Ry     beta= 0.70
     Davidson diagonalization with overlap
     ethr =  1.38E-07,  avg # of iterations =  3.2

     negative rho (up, down):  9.523E-04 0.000E+00

     total cpu time spent up to now is       23.2 secs

     WARNING: integrated charge=    28.00002619, expected=    28.00000000

     total energy              =    -448.58289885 Ry
     estimated scf accuracy    <       0.00000700 Ry

     iteration # 21     ecut=   124.00 Ry     beta= 0.70
     Davidson diagonalization with overlap
     ethr =  2.50E-08,  avg # of iterations =  2.7

     negative rho (up, down):  9.533E-04 0.000E+00

     total cpu time spent up to now is       24.2 secs

     WARNING: integrated charge=    28.00000415, expected=    28.00000000

     total energy              =    -448.58289894 Ry
     estimated scf accuracy    <       0.00000270 Ry

     iteration # 22     ecut=   124.00 Ry     beta= 0.70
     Davidson diagonalization with overlap
     ethr =  9.63E-09,  avg # of iterations =  2.8

     negative rho (up, down):  9.534E-04 0.000E+00

     total cpu time spent up to now is       25.3 secs

     End of self-consistent calculation

          k = 0.0000 0.0000 0.0000 (  3887 PWs)   bands (ev):

   -68.3816 -38.2122 -34.4445 -34.4445 -34.4445 -14.2932 -14.2932 -14.2932
    10.8840  14.4953  14.4953  17.4602  17.4602  17.4602  19.9205  19.9205
    21.9714  21.9714

          k = 0.0000 0.0000 0.0909 (  3831 PWs)   bands (ev):

   -68.3813 -38.2098 -34.4472 -34.4440 -34.4440 -14.3271 -14.2913 -14.2913
    11.0636  14.5824  14.5936  17.4470  17.4470  17.5002  19.8071  19.9637
    21.7046  21.7046

          k = 0.0000 0.0000 0.1818 (  3823 PWs)   bands (ev):

   -68.3804 -38.2035 -34.4546 -34.4428 -34.4428 -14.4172 -14.2861 -14.2861
    11.5836  14.8375  14.8508  17.4170  17.4170  17.6124  19.4797  20.0634
    21.0852  21.0852

          k = 0.0000 0.0000 0.2727 (  3847 PWs)   bands (ev):

   -68.3791 -38.1952 -34.4642 -34.4411 -34.4411 -14.5337 -14.2792 -14.2792
    12.3868  15.1527  15.2396  17.3925  17.3925  17.7718  18.9795  20.1109
    20.4005  20.4005

          k = 0.0000 0.0000 0.3636 (  3844 PWs)   bands (ev):

   -68.3780 -38.1877 -34.4729 -34.4396 -34.4396 -14.6392 -14.2729 -14.2729
    13.3695  15.3090  15.7390  17.3900  17.3900  17.9346  18.3868  19.8396
    19.8396  19.9309

          k = 0.0000 0.0000 0.4545 (  3836 PWs)   bands (ev):

   -68.3774 -38.1832 -34.4780 -34.4387 -34.4387 -14.7012 -14.2692 -14.2692
    14.3452  15.0908  16.1895  17.4016  17.4016  17.8795  18.0408  19.5215
    19.5215  19.6148

          k = 0.0000 0.0909 0.0909 (  3839 PWs)   bands (ev):

   -68.3809 -38.2073 -34.4486 -34.4453 -34.4436 -14.3287 -14.3209 -14.2892
    11.2394  14.6678  14.6898  17.3587  17.4256  17.6033  19.7911  19.9323
    21.4112  21.4389

          k = 0.0000 0.0909 0.1818 (  3846 PWs)   bands (ev):

   -68.3800 -38.2005 -34.4555 -34.4452 -34.4423 -14.4145 -14.3182 -14.2837
    11.7471  14.8999  14.9570  17.2735  17.3735  17.7289  19.5391  20.0195
    20.8367  20.8692

          k = 0.0000 0.0909 0.2727 (  3830 PWs)   bands (ev):

   -68.3788 -38.1916 -34.4652 -34.4445 -34.4407 -14.5296 -14.3104 -14.2766
    12.5273  15.2067  15.3259  17.2284  17.3157  17.8195  19.1130  19.9976
    20.3081  20.3392

          k = 0.0000 0.0909 0.3636 (  3840 PWs)   bands (ev):

   -68.3777 -38.1835 -34.4741 -34.4437 -34.4392 -14.6339 -14.3031 -14.2699
    13.4733  15.3585  15.7793  17.2369  17.2631  17.8247  18.6282  19.5615
    19.9865  20.1668

          k = 0.0000 0.0909 0.4545 (  3846 PWs)   bands (ev):

   -68.3771 -38.1786 -34.4794 -34.4432 -34.4383 -14.6952 -14.2988 -14.2660
    14.3999  15.1343  16.1874  17.1891  17.2796  17.7635  18.2835  19.2570
    19.8461  19.9717

          k = 0.0000 0.1818 0.1818 (  3838 PWs)   bands (ev):

   -68.3791 -38.1924 -34.4595 -34.4502 -34.4411 -14.4163 -14.3946 -14.2775
    12.2145  15.0566  15.2562  17.0876  17.2750  17.8129  19.5964  19.9746
    20.2921  20.5238

          k = 0.0000 0.1818 0.2727 (  3827 PWs)   bands (ev):

   -68.3779 -38.1818 -34.4682 -34.4531 -34.4396 -14.5187 -14.3931 -14.2694
    12.9158  15.2428  15.6613  16.9592  17.1833  17.7328  19.4080  19.7218
    20.1445  20.3350

          k = 0.0000 0.1818 0.3636 (  3842 PWs)   bands (ev):

   -68.3768 -38.1721 -34.4774 -34.4546 -34.4381 -14.6196 -14.3835 -14.2619
    13.7284  15.3129  16.0695  16.9223  17.1584  17.5080  19.0855  19.3675
    20.2892  20.3588

          k = 0.0000 0.1818 0.4545 (  3838 PWs)   bands (ev):

   -68.3762 -38.1663 -34.4829 -34.4553 -34.4373 -14.6791 -14.3777 -14.2574
    14.4627  15.1194  16.3593  16.9794  17.2021  17.2727  18.9069  19.1124
    20.3253  20.4641

          k = 0.0000 0.2727 0.2727 (  3826 PWs)   bands (ev):

   -68.3767 -38.1690 -34.4738 -34.4627 -34.4381 -14.5149 -14.4896 -14.2600
    13.4530  15.2269  16.1441  16.7377  17.1454  17.4480  19.4886  19.6505
    20.0443  20.5204

          k = 0.0000 0.2727 0.3636 (  3824 PWs)   bands (ev):

   -68.3756 -38.1572 -34.4819 -34.4686 -34.4367 -14.6011 -14.4873 -14.2513
    13.9885  15.1213  16.6185  16.6219  17.1020  17.3263  19.2997  19.6307
    20.2310  20.8153

          k = 0.0000 0.2727 0.4545 (  3825 PWs)   bands (ev):

   -68.3750 -38.1501 -34.4877 -34.4711 -34.4359 -14.6580 -14.4797 -14.2462
    14.3727  14.9540  16.6372  16.8211  16.8796  17.7103  19.0480  19.5798
    20.4708  21.0799

          k = 0.0000 0.3636 0.3636 (  3814 PWs)   bands (ev):

   -68.3746 -38.1434 -34.4871 -34.4805 -34.4354 -14.5901 -14.5755 -14.2416
    14.1367  14.9101  16.4239  16.7329  17.2610  17.7656  19.4432  20.0097
    20.0640  21.2460

          k = 0.0000 0.3636 0.4545 (  3825 PWs)   bands (ev):

   -68.3739 -38.1352 -34.4921 -34.4856 -34.4346 -14.6386 -14.5723 -14.2358
    14.1875  14.7749  16.3696  16.4777  17.6546  18.4441  19.1973  20.0796
    20.2970  21.5689

          k = 0.0000 0.4545 0.4545 (  3850 PWs)   bands (ev):

   -68.3733 -38.1262 -34.4950 -34.4940 -34.4339 -14.6279 -14.6259 -14.2297
    14.0572  14.6693  16.2413  16.2777  18.3781  18.8961  19.6245  19.8206
    20.3569  21.8579

          k = 0.0909 0.0909 0.0909 (  3833 PWs)   bands (ev):

   -68.3806 -38.2046 -34.4481 -34.4481 -34.4436 -14.3294 -14.3190 -14.3190
    11.4120  14.7681  14.7681  17.3351  17.3351  17.6868  19.8472  19.8473
    20.9684  21.6829

          k = 0.0909 0.0909 0.1818 (  3843 PWs)   bands (ev):

   -68.3797 -38.1974 -34.4558 -34.4468 -34.4435 -14.4116 -14.3179 -14.3136
    11.9092  14.9961  15.0286  17.2178  17.2728  17.7757  19.6021  19.9786
    20.4661  21.0612

          k = 0.0909 0.0909 0.2727 (  3841 PWs)   bands (ev):

   -68.3785 -38.1879 -34.4659 -34.4451 -34.4433 -14.5255 -14.3087 -14.3067
    12.6697  15.3248  15.3502  17.1574  17.1884  17.7706  19.2326  19.9342
    20.2642  20.3879

          k = 0.0909 0.0909 0.3636 (  3838 PWs)   bands (ev):

   -68.3774 -38.1793 -34.4751 -34.4435 -34.4431 -14.6288 -14.3003 -14.3001
    13.5839  15.4486  15.7786  17.0838  17.1930  17.6769  18.8214  19.6445
    19.8521  20.3761

          k = 0.0909 0.0909 0.4545 (  3842 PWs)   bands (ev):

   -68.3767 -38.1741 -34.4805 -34.4430 -34.4426 -14.6895 -14.2964 -14.2949
    14.4688  15.2025  16.1543  16.9523  17.3199  17.5795  18.5284  19.3553
    19.5581  20.4916

          k = 0.0909 0.1818 0.1818 (  3840 PWs)   bands (ev):

   -68.3788 -38.1890 -34.4590 -34.4515 -34.4437 -14.4125 -14.3926 -14.3090
    12.3720  15.1683  15.3086  17.0488  17.1585  17.7383  19.6712  19.9439
    20.1690  20.7599

          k = 0.0909 0.1818 0.2727 (  3822 PWs)   bands (ev):

   -68.3776 -38.1781 -34.4682 -34.4534 -34.4432 -14.5148 -14.3903 -14.3003
    13.0635  15.3691  15.6814  16.9137  17.0582  17.5444  19.5055  19.8518
    20.1798  20.4007

          k = 0.0909 0.1818 0.3636 (  3829 PWs)   bands (ev):

   -68.3765 -38.1680 -34.4779 -34.4543 -34.4423 -14.6151 -14.3806 -14.2922
    13.8583  15.4485  16.0188  16.8387  17.0552  17.3474  19.2483  19.4925
    20.0382  20.6889

          k = 0.0909 0.1818 0.4545 (  3833 PWs)   bands (ev):

   -68.3758 -38.1621 -34.4837 -34.4549 -34.4417 -14.6743 -14.3748 -14.2873
    14.5694  15.2366  16.2526  16.7747  17.1579  17.2987  19.0672  19.1893
    19.8275  21.1072

          k = 0.0909 0.2727 0.2727 (  3819 PWs)   bands (ev):

   -68.3764 -38.1652 -34.4733 -34.4632 -34.4421 -14.5104 -14.4875 -14.2907
    13.6064  15.3583  16.1537  16.6980  17.0036  17.2243  19.6134  19.8142
    20.0262  20.6675

          k = 0.0909 0.2727 0.3636 (  3831 PWs)   bands (ev):

   -68.3753 -38.1533 -34.4817 -34.4685 -34.4410 -14.5974 -14.4846 -14.2818
    14.1386  15.2539  16.5377  16.5913  16.9845  17.1786  19.3872  19.7260
    20.1037  21.1082

          k = 0.0909 0.2727 0.4545 (  3829 PWs)   bands (ev):

   -68.3747 -38.1462 -34.4878 -34.4706 -34.4403 -14.6542 -14.4771 -14.2764
    14.5075  15.0867  16.5488  16.6105  16.9511  17.6075  19.0889  19.6898
    20.0349  21.6195

          k = 0.0909 0.3636 0.3636 (  3826 PWs)   bands (ev):

   -68.3742 -38.1396 -34.4865 -34.4804 -34.4397 -14.5866 -14.5734 -14.2721
    14.2883  15.0421  16.3925  16.6397  17.2172  17.5813  19.3992  19.9342
    20.1152  21.5818

          k = 0.0909 0.3636 0.4545 (  3828 PWs)   bands (ev):

   -68.3736 -38.1315 -34.4918 -34.4851 -34.4390 -14.6358 -14.5700 -14.2664
    14.3292  14.9103  16.3365  16.4247  17.5787  18.2565  19.1480  19.8989
    20.2149  21.8213

          k = 0.0909 0.4545 0.4545 (  3833 PWs)   bands (ev):

   -68.3730 -38.1228 -34.4943 -34.4934 -34.4382 -14.6256 -14.6238 -14.2604
    14.1999  14.8052  16.2189  16.2506  18.3206  18.7573  19.3413  19.4555
    20.4380  22.0558

          k = 0.1818 0.1818 0.1818 (  3821 PWs)   bands (ev):

   -68.3779 -38.1800 -34.4576 -34.4576 -34.4482 -14.4080 -14.3871 -14.3871
    12.8185  15.4573  15.4573  16.9455  16.9455  17.4614  19.8533  19.8533
    20.2332  21.0177

          k = 0.1818 0.1818 0.2727 (  3833 PWs)   bands (ev):

   -68.3767 -38.1681 -34.4686 -34.4558 -34.4511 -14.5045 -14.3854 -14.3798
    13.4731  15.6761  15.7610  16.8021  16.8078  17.1275  19.7156  19.9437
    20.3714  20.5601

          k = 0.1818 0.1818 0.3636 (  3835 PWs)   bands (ev):

   -68.3756 -38.1571 -34.4793 -34.4541 -34.4531 -14.6031 -14.3732 -14.3727
    14.1943  15.7612  15.9193  16.6641  16.8450  17.0504  19.5699  19.6772
    19.8688  21.1574

          k = 0.1818 0.1818 0.4545 (  3832 PWs)   bands (ev):

   -68.3749 -38.1506 -34.4857 -34.4542 -34.4531 -14.6612 -14.3692 -14.3650
    14.7978  15.4496  16.1127  16.5434  16.9737  17.2539  19.2504  19.4852
    19.5842  21.5391

          k = 0.1818 0.2727 0.2727 (  3836 PWs)   bands (ev):

   -68.3755 -38.1549 -34.4718 -34.4648 -34.4528 -14.4984 -14.4819 -14.3723
    14.0345  15.7160  16.1747  16.5965  16.6853  16.7705  19.7481  19.9462
    20.2609  21.0711

          k = 0.1818 0.2727 0.3636 (  3837 PWs)   bands (ev):

   -68.3744 -38.1428 -34.4815 -34.4682 -34.4525 -14.5874 -14.4773 -14.3627
    14.5553  15.6005  16.3227  16.4809  16.7584  16.8738  19.5063  19.7682
    20.1461  21.3771

          k = 0.1818 0.2727 0.4545 (  3837 PWs)   bands (ev):

   -68.3738 -38.1356 -34.4883 -34.4693 -34.4521 -14.6441 -14.4703 -14.3569
    14.8703  15.4113  16.2851  16.4298  16.8593  17.3656  19.1387  19.5926
    20.0483  21.6141

          k = 0.1818 0.3636 0.3636 (  3826 PWs)   bands (ev):

   -68.3734 -38.1296 -34.4848 -34.4804 -34.4514 -14.5772 -14.5678 -14.3533
    14.7208  15.3854  16.3148  16.4405  17.0807  17.1252  19.3701  19.6267
    20.4272  21.5490

          k = 0.1818 0.3636 0.4545 (  3827 PWs)   bands (ev):

   -68.3727 -38.1217 -34.4908 -34.4836 -34.4507 -14.6284 -14.5638 -14.3476
    14.7310  15.2630  16.2581  16.3114  17.3250  17.7890  19.0818  19.4570
    20.5090  21.8067

          k = 0.1818 0.4545 0.4545 (  3828 PWs)   bands (ev):

   -68.3721 -38.1134 -34.4926 -34.4920 -34.4498 -14.6196 -14.6183 -14.3420
    14.6082  15.1668  16.1664  16.1900  18.0401  18.1682  18.9690  19.1528
    20.7119  22.1139

          k = 0.2727 0.2727 0.2727 (  3833 PWs)   bands (ev):

   -68.3743 -38.1414 -34.4698 -34.4698 -34.4639 -14.4860 -14.4745 -14.4745
    14.6209  16.1880  16.1880  16.2649  16.4761  16.4761  19.7613  19.7613
    20.7575  20.7575

          k = 0.2727 0.2727 0.3636 (  3830 PWs)   bands (ev):

   -68.3733 -38.1290 -34.4814 -34.4680 -34.4671 -14.5745 -14.4677 -14.4673
    15.0961  15.8750  16.1784  16.3823  16.4886  16.7155  19.4989  19.5381
    20.5945  21.2848

          k = 0.2727 0.2727 0.4545 (  3826 PWs)   bands (ev):

   -68.3726 -38.1216 -34.4890 -34.4682 -34.4669 -14.6308 -14.4636 -14.4586
    15.2575  15.6580  16.1591  16.3366  16.6994  17.1870  19.0787  19.4026
    20.5370  21.6486

          k = 0.2727 0.3636 0.3636 (  3833 PWs)   bands (ev):

   -68.3722 -38.1163 -34.4827 -34.4804 -34.4666 -14.5648 -14.5604 -14.4583
    15.3541  15.7464  16.2316  16.3462  16.6089  16.8572  19.3197  19.3278
    20.9180  21.4958

          k = 0.2727 0.3636 0.4545 (  3835 PWs)   bands (ev):

   -68.3716 -38.1087 -34.4898 -34.4817 -34.4659 -14.6186 -14.5557 -14.4527
    15.3006  15.6616  16.1900  16.2627  16.9206  17.2942  18.9720  19.2321
    20.9846  21.8430

          k = 0.2727 0.4545 0.4545 (  3820 PWs)   bands (ev):

   -68.3709 -38.1010 -34.4903 -34.4900 -34.4649 -14.6116 -14.6110 -14.4478
    15.2149  15.6220  16.1223  16.1551  17.4698  17.4919  18.7883  19.0668
    21.1749  22.1532

          k = 0.3636 0.3636 0.3636 (  3824 PWs)   bands (ev):

   -68.3712 -38.1041 -34.4807 -34.4807 -34.4801 -14.5536 -14.5536 -14.5534
    15.7173  16.1513  16.1905  16.1905  16.5959  16.5959  19.1391  19.1391
    21.5015  21.5015

          k = 0.3636 0.3636 0.4545 (  3831 PWs)   bands (ev):

   -68.3705 -38.0968 -34.4888 -34.4803 -34.4795 -14.6096 -14.5496 -14.5467
    15.7167  15.9131  16.2305  16.3700  16.6086  16.9646  18.8689  19.0565
    21.5150  21.9403

          k = 0.3636 0.4545 0.4545 (  3834 PWs)   bands (ev):

   -68.3699 -38.0897 -34.4883 -34.4882 -34.4788 -14.6043 -14.6043 -14.5437
    15.8305  16.0063  16.1348  16.2595  16.8994  16.9480  18.7436  18.9173
    21.7519  22.1845

          k = 0.4545 0.4545 0.4545 (  3858 PWs)   bands (ev):

   -68.3693 -38.0829 -34.4872 -34.4870 -34.4870 -14.6004 -14.6004 -14.5997
    16.0811  16.2409  16.2409  16.5472  16.5472  16.5878  18.7329  18.7329
    22.2024  22.2024

     the Fermi energy is    18.4846 ev

!    total energy              =    -448.58289931 Ry
     estimated scf accuracy    <          4.0E-10 Ry
     smearing contrib. (-TS)   =       0.00000687 Ry
     internal energy E=F+TS    =    -448.58290618 Ry

     The total energy is F=E-TS. E is the sum of the following terms:
     one-electron contribution =    -145.82719662 Ry
     hartree contribution      =      89.76653700 Ry
     xc contribution           =     -52.96142912 Ry
     ewald contribution        =    -263.40606856 Ry
     one-center paw contrib.   =     -76.15474887 Ry

     convergence has been achieved in  22 iterations

     negative rho (up, down):  9.534E-04 0.000E+00

     Forces acting on atoms (cartesian axes, Ry/au):

     atom    1 type  1   force =     0.00000000    0.00000000    0.00000000
     atom    2 type  2   force =     0.00000000    0.00000000    0.00000000

     Total force =     0.000000     Total SCF correction =     0.000000


     Computing stress (Cartesian axis) and pressure


     negative rho (up, down):  9.534E-04 0.000E+00
          total   stress  (Ry/bohr**3)                   (kbar)     P=      124.12
   0.00084373   0.00000000   0.00000000          124.12        0.00        0.00
   0.00000000   0.00084373   0.00000000            0.00      124.12        0.00
   0.00000000   0.00000000   0.00084373            0.00        0.00      124.12


     Writing all to output data dir ./TiFe.save/ :
     XML data file, charge density, pseudopotentials, collected wavefunctions

     init_run     :      1.10s CPU      1.16s WALL (       1 calls)
     electrons    :     22.59s CPU     23.93s WALL (       1 calls)
     forces       :      0.23s CPU      0.26s WALL (       1 calls)
     stress       :      1.34s CPU      1.41s WALL (       1 calls)

     Called by init_run:
     wfcinit      :      0.32s CPU      0.33s WALL (       1 calls)
     potinit      :      0.36s CPU      0.38s WALL (       1 calls)
     hinit0       :      0.25s CPU      0.26s WALL (       1 calls)

     Called by electrons:
     c_bands      :     13.88s CPU     14.21s WALL (      22 calls)
     sum_band     :      4.53s CPU      5.09s WALL (      22 calls)
     v_of_rho     :      0.51s CPU      0.55s WALL (      23 calls)
     newd         :      2.50s CPU      2.91s WALL (      23 calls)
     PAW_pot      :      1.23s CPU      1.26s WALL (      23 calls)
     mix_rho      :      0.06s CPU      0.07s WALL (      22 calls)

     Called by c_bands:
     init_us_2    :      0.40s CPU      0.42s WALL (    2632 calls)
     cegterg      :     13.19s CPU     13.49s WALL (    1232 calls)

     Called by *egterg:
     cdiaghg      :      1.60s CPU      1.63s WALL (    4692 calls)
     h_psi        :      9.95s CPU     10.20s WALL (    4748 calls)
     s_psi        :      0.27s CPU      0.28s WALL (    4748 calls)
     g_psi        :      0.06s CPU      0.06s WALL (    3460 calls)

     Called by h_psi:
     h_psi:calbec :      0.54s CPU      0.55s WALL (    4748 calls)
     vloc_psi     :      9.07s CPU      9.30s WALL (    4748 calls)
     add_vuspsi   :      0.29s CPU      0.29s WALL (    4748 calls)

     General routines
     calbec       :      0.79s CPU      0.81s WALL (    6932 calls)
     fft          :      0.42s CPU      0.48s WALL (     322 calls)
     ffts         :      0.28s CPU      0.29s WALL (      45 calls)
     fftw         :      8.60s CPU      8.81s WALL (  134038 calls)
     interpolate  :      0.30s CPU      0.31s WALL (      23 calls)

     Parallel routines

     PWSCF        :     25.55s CPU     27.22s WALL


   This run was terminated on:   0:39:17  25Oct2025            

=------------------------------------------------------------------------------=
   JOB DONE.
=------------------------------------------------------------------------------=
