
     Program PWSCF v.7.4 starts on 25Oct2025 at  0:50:51 

     This program is part of the open-source Quantum ESPRESSO suite
     for quantum simulation of materials; please cite
         "P. Giannozzi et al., J. Phys.:Condens. Matter 21 395502 (2009);
         "P. Giannozzi et al., J. Phys.:Condens. Matter 29 465901 (2017);
         "P. Giannozzi et al., J. Chem. Phys. 152 154105 (2020);
          URL http://www.quantum-espresso.org", 
     in publications or presentations arising from this work. More details at
     http://www.quantum-espresso.org/quote

     Parallel version (MPI & OpenMP), running on       8 processor cores
     Number of MPI processes:                 8
     Threads/MPI process:                     1

     MPI processes distributed on     1 nodes
     211102 MiB available memory on the printing compute node when the environment starts

     Reading input from TiFe_23.in

     Current dimensions of program PWSCF are:
     Max number of different atomic species (ntypx) = 10
     Max number of k-points (npk) =  40000
     Max angular momentum in pseudopotentials (lmaxx) =  4
     file Fe.pbe-spn-kjpaw_psl.0.2.1.UPF: wavefunction(s)  3D renormalized

     IMPORTANT: XC functional enforced from input :
     Exchange-correlation= PBE
                           (   1   4   3   4   0   0   0)
     Any further DFT definition will be discarded
     Please, verify this is what you really want

     Message from routine setup:
     using ibrav=0 with symmetry is DISCOURAGED, use correct ibrav instead

     R & G space division:  proc/nbgrp/npool/nimage =       8
     Subspace diagonalization in iterative solution of the eigenvalue problem:
     a serial algorithm will be used


     Parallelization info
     --------------------
     sticks:   dense  smooth     PW     G-vecs:    dense   smooth      PW
     Min         572     164     46                29196     4466     686
     Max         573     165     47                29199     4467     689
     Sum        4581    1313    373               233577    35729    5497

     Using Slab Decomposition



     bravais-lattice index     =            0
     lattice parameter (alat)  =       5.7612  a.u.
     unit-cell volume          =     191.2195 (a.u.)^3
     number of atoms/cell      =            2
     number of atomic types    =            2
     number of electrons       =        28.00
     number of Kohn-Sham states=           18
     kinetic-energy cutoff     =     124.0000  Ry
     charge density cutoff     =    1736.0000  Ry
     scf convergence threshold =      1.0E-08
     mixing beta               =       0.7000
     number of iterations used =            8  plain     mixing
     Exchange-correlation= PBE
                           (   1   4   3   4   0   0   0)

     celldm(1)=   5.761170  celldm(2)=   0.000000  celldm(3)=   0.000000
     celldm(4)=   0.000000  celldm(5)=   0.000000  celldm(6)=   0.000000

     crystal axes: (cart. coord. in units of alat)
               a(1) = (   1.000000   0.000000   0.000000 )  
               a(2) = (   0.000000   1.000000   0.000000 )  
               a(3) = (   0.000000   0.000000   1.000000 )  

     reciprocal axes: (cart. coord. in units 2 pi/alat)
               b(1) = (  1.000000  0.000000  0.000000 )  
               b(2) = (  0.000000  1.000000  0.000000 )  
               b(3) = (  0.000000  0.000000  1.000000 )  


     PseudoPot. # 1 for Fe read from file:
     ../pseudos/Fe.pbe-spn-kjpaw_psl.0.2.1.UPF
     MD5 check sum: e86618425769142926afa95317d90200
     Pseudo is Projector augmented-wave + core cor, Zval = 16.0
     Generated using "atomic" code by A. Dal Corso  v.5.0.99 svn rev. 10869
     Shape of augmentation charge: PSQ
     Using radial grid of 1191 points,  6 beta functions with: 
                l(1) =   0
                l(2) =   0
                l(3) =   1
                l(4) =   1
                l(5) =   2
                l(6) =   2
     Q(r) pseudized with 0 coefficients 


     PseudoPot. # 2 for Ti read from file:
     ../pseudos/ti_pbe_v1.4.uspp.F.UPF
     MD5 check sum: 88a00a6731bd790ddea75d31a80cb452
     Pseudo is Ultrasoft + core correction, Zval = 12.0
     Generated by new atomic code, or converted to UPF format
     Using radial grid of  851 points,  6 beta functions with: 
                l(1) =   0
                l(2) =   0
                l(3) =   1
                l(4) =   1
                l(5) =   2
                l(6) =   2
     Q(r) pseudized with  6 coefficients,  rinner =    1.000   1.000   1.000
                                                       1.000   1.000

     atomic species   valence    mass     pseudopotential
     Fe               16.00    55.84500     Fe( 1.00)
     Ti               12.00    47.86700     Ti( 1.00)

     48 Sym. Ops., with inversion, found



   Cartesian axes

     site n.     atom                  positions (alat units)
         1        Fe     tau(   1) = (   0.5000000   0.5000000   0.5000000  )
         2        Ti     tau(   2) = (   0.0000000   0.0000000   0.0000000  )

     number of k points=    56  Marzari-Vanderbilt smearing, width (Ry)=  0.0050
                       cart. coord. in units 2pi/alat
        k(    1) = (   0.0000000   0.0000000   0.0000000), wk =   0.0015026
        k(    2) = (   0.0000000   0.0000000   0.0909091), wk =   0.0090158
        k(    3) = (   0.0000000   0.0000000   0.1818182), wk =   0.0090158
        k(    4) = (   0.0000000   0.0000000   0.2727273), wk =   0.0090158
        k(    5) = (   0.0000000   0.0000000   0.3636364), wk =   0.0090158
        k(    6) = (   0.0000000   0.0000000   0.4545455), wk =   0.0090158
        k(    7) = (   0.0000000   0.0909091   0.0909091), wk =   0.0180316
        k(    8) = (   0.0000000   0.0909091   0.1818182), wk =   0.0360631
        k(    9) = (   0.0000000   0.0909091   0.2727273), wk =   0.0360631
        k(   10) = (   0.0000000   0.0909091   0.3636364), wk =   0.0360631
        k(   11) = (   0.0000000   0.0909091   0.4545455), wk =   0.0360631
        k(   12) = (   0.0000000   0.1818182   0.1818182), wk =   0.0180316
        k(   13) = (   0.0000000   0.1818182   0.2727273), wk =   0.0360631
        k(   14) = (   0.0000000   0.1818182   0.3636364), wk =   0.0360631
        k(   15) = (   0.0000000   0.1818182   0.4545455), wk =   0.0360631
        k(   16) = (   0.0000000   0.2727273   0.2727273), wk =   0.0180316
        k(   17) = (   0.0000000   0.2727273   0.3636364), wk =   0.0360631
        k(   18) = (   0.0000000   0.2727273   0.4545455), wk =   0.0360631
        k(   19) = (   0.0000000   0.3636364   0.3636364), wk =   0.0180316
        k(   20) = (   0.0000000   0.3636364   0.4545455), wk =   0.0360631
        k(   21) = (   0.0000000   0.4545455   0.4545455), wk =   0.0180316
        k(   22) = (   0.0909091   0.0909091   0.0909091), wk =   0.0120210
        k(   23) = (   0.0909091   0.0909091   0.1818182), wk =   0.0360631
        k(   24) = (   0.0909091   0.0909091   0.2727273), wk =   0.0360631
        k(   25) = (   0.0909091   0.0909091   0.3636364), wk =   0.0360631
        k(   26) = (   0.0909091   0.0909091   0.4545455), wk =   0.0360631
        k(   27) = (   0.0909091   0.1818182   0.1818182), wk =   0.0360631
        k(   28) = (   0.0909091   0.1818182   0.2727273), wk =   0.0721262
        k(   29) = (   0.0909091   0.1818182   0.3636364), wk =   0.0721262
        k(   30) = (   0.0909091   0.1818182   0.4545455), wk =   0.0721262
        k(   31) = (   0.0909091   0.2727273   0.2727273), wk =   0.0360631
        k(   32) = (   0.0909091   0.2727273   0.3636364), wk =   0.0721262
        k(   33) = (   0.0909091   0.2727273   0.4545455), wk =   0.0721262
        k(   34) = (   0.0909091   0.3636364   0.3636364), wk =   0.0360631
        k(   35) = (   0.0909091   0.3636364   0.4545455), wk =   0.0721262
        k(   36) = (   0.0909091   0.4545455   0.4545455), wk =   0.0360631
        k(   37) = (   0.1818182   0.1818182   0.1818182), wk =   0.0120210
        k(   38) = (   0.1818182   0.1818182   0.2727273), wk =   0.0360631
        k(   39) = (   0.1818182   0.1818182   0.3636364), wk =   0.0360631
        k(   40) = (   0.1818182   0.1818182   0.4545455), wk =   0.0360631
        k(   41) = (   0.1818182   0.2727273   0.2727273), wk =   0.0360631
        k(   42) = (   0.1818182   0.2727273   0.3636364), wk =   0.0721262
        k(   43) = (   0.1818182   0.2727273   0.4545455), wk =   0.0721262
        k(   44) = (   0.1818182   0.3636364   0.3636364), wk =   0.0360631
        k(   45) = (   0.1818182   0.3636364   0.4545455), wk =   0.0721262
        k(   46) = (   0.1818182   0.4545455   0.4545455), wk =   0.0360631
        k(   47) = (   0.2727273   0.2727273   0.2727273), wk =   0.0120210
        k(   48) = (   0.2727273   0.2727273   0.3636364), wk =   0.0360631
        k(   49) = (   0.2727273   0.2727273   0.4545455), wk =   0.0360631
        k(   50) = (   0.2727273   0.3636364   0.3636364), wk =   0.0360631
        k(   51) = (   0.2727273   0.3636364   0.4545455), wk =   0.0721262
        k(   52) = (   0.2727273   0.4545455   0.4545455), wk =   0.0360631
        k(   53) = (   0.3636364   0.3636364   0.3636364), wk =   0.0120210
        k(   54) = (   0.3636364   0.3636364   0.4545455), wk =   0.0360631
        k(   55) = (   0.3636364   0.4545455   0.4545455), wk =   0.0360631
        k(   56) = (   0.4545455   0.4545455   0.4545455), wk =   0.0120210

     Dense  grid:   233577 G-vectors     FFT dimensions: (  80,  80,  80)

     Smooth grid:    35729 G-vectors     FFT dimensions: (  45,  45,  45)

     Estimated max dynamical RAM per process >     122.50 MB

     Estimated total dynamical RAM >     979.99 MB

     Check: negative core charge=   -0.000001

     Initial potential from superposition of free atoms

     starting charge      26.9995, renormalised to      28.0000

     negative rho (up, down):  1.340E-03 0.000E+00
     Starting wfcs are   23 randomized atomic wfcs
     Checking if some PAW data can be deallocated... 

     total cpu time spent up to now is        1.7 secs

     per-process dynamical memory:   137.2 Mb

     Self-consistent Calculation

     iteration #  1     ecut=   124.00 Ry     beta= 0.70
     Davidson diagonalization with overlap
     ethr =  1.00E-02,  avg # of iterations =  2.2

     negative rho (up, down):  9.600E-05 0.000E+00

     total cpu time spent up to now is        3.2 secs

     total energy              =    -432.77651972 Ry
     estimated scf accuracy    <      20.00935910 Ry

     iteration #  2     ecut=   124.00 Ry     beta= 0.70
     Davidson diagonalization with overlap
     ethr =  1.00E-02,  avg # of iterations =  6.0

     negative rho (up, down):  1.108E-05 0.000E+00

     total cpu time spent up to now is        5.6 secs

     total energy              =    -447.69201891 Ry
     estimated scf accuracy    <      77.42384599 Ry

     iteration #  3     ecut=   124.00 Ry     beta= 0.70
     Davidson diagonalization with overlap
     ethr =  1.00E-02,  avg # of iterations =  3.2

     negative rho (up, down):  1.327E-04 0.000E+00

     total cpu time spent up to now is        7.3 secs

     total energy              =    -449.12756477 Ry
     estimated scf accuracy    <      18.65614302 Ry

     iteration #  4     ecut=   124.00 Ry     beta= 0.70
     Davidson diagonalization with overlap
     ethr =  1.00E-02,  avg # of iterations =  2.1

     negative rho (up, down):  2.534E-04 0.000E+00

     total cpu time spent up to now is        8.7 secs

     total energy              =    -449.14979507 Ry
     estimated scf accuracy    <       7.28533450 Ry

     iteration #  5     ecut=   124.00 Ry     beta= 0.70
     Davidson diagonalization with overlap
     ethr =  1.00E-02,  avg # of iterations =  1.1

     negative rho (up, down):  4.614E-04 0.000E+00

     total cpu time spent up to now is       10.0 secs

     total energy              =    -448.89457661 Ry
     estimated scf accuracy    <       5.03601676 Ry

     iteration #  6     ecut=   124.00 Ry     beta= 0.70
     Davidson diagonalization with overlap
     ethr =  1.00E-02,  avg # of iterations =  1.1

     negative rho (up, down):  1.290E-03 0.000E+00

     total cpu time spent up to now is       11.3 secs

     total energy              =    -447.62857219 Ry
     estimated scf accuracy    <       4.09487025 Ry

     iteration #  7     ecut=   124.00 Ry     beta= 0.70
     Davidson diagonalization with overlap
     ethr =  1.00E-02,  avg # of iterations =  4.4

     negative rho (up, down):  1.109E-03 0.000E+00

     total cpu time spent up to now is       12.9 secs

     total energy              =    -448.98988370 Ry
     estimated scf accuracy    <      18.22914542 Ry

     iteration #  8     ecut=   124.00 Ry     beta= 0.70
     Davidson diagonalization with overlap
     ethr =  1.00E-02,  avg # of iterations =  1.0

     negative rho (up, down):  6.805E-04 0.000E+00

     total cpu time spent up to now is       14.2 secs

     total energy              =    -447.66436814 Ry
     estimated scf accuracy    <      12.04845274 Ry

     iteration #  9     ecut=   124.00 Ry     beta= 0.70
     Davidson diagonalization with overlap
     ethr =  1.00E-02,  avg # of iterations =  2.4

     negative rho (up, down):  9.045E-04 0.000E+00

     total cpu time spent up to now is       15.5 secs

     total energy              =    -448.47887604 Ry
     estimated scf accuracy    <       0.67919937 Ry

     iteration # 10     ecut=   124.00 Ry     beta= 0.70
     Davidson diagonalization with overlap
     ethr =  2.43E-03,  avg # of iterations =  1.4

     negative rho (up, down):  1.050E-03 0.000E+00

     total cpu time spent up to now is       16.8 secs

     total energy              =    -448.67213911 Ry
     estimated scf accuracy    <       0.44732636 Ry

     iteration # 11     ecut=   124.00 Ry     beta= 0.70
     Davidson diagonalization with overlap
     ethr =  1.60E-03,  avg # of iterations =  3.2

     negative rho (up, down):  8.519E-04 0.000E+00

     total cpu time spent up to now is       18.2 secs

     total energy              =    -448.39248710 Ry
     estimated scf accuracy    <       4.53718442 Ry

     iteration # 12     ecut=   124.00 Ry     beta= 0.70
     Davidson diagonalization with overlap
     ethr =  1.60E-03,  avg # of iterations =  3.2

     negative rho (up, down):  7.685E-04 0.000E+00

     total cpu time spent up to now is       19.6 secs

     total energy              =    -448.57516087 Ry
     estimated scf accuracy    <       0.03285132 Ry

     iteration # 13     ecut=   124.00 Ry     beta= 0.70
     Davidson diagonalization with overlap
     ethr =  1.17E-04,  avg # of iterations =  4.8

     negative rho (up, down):  6.852E-04 0.000E+00

     total cpu time spent up to now is       21.2 secs

     total energy              =    -448.63303045 Ry
     estimated scf accuracy    <       0.23755884 Ry

     iteration # 14     ecut=   124.00 Ry     beta= 0.70
     Davidson diagonalization with overlap
     ethr =  1.17E-04,  avg # of iterations =  3.9

     negative rho (up, down):  6.389E-04 0.000E+00

     total cpu time spent up to now is       22.7 secs

     total energy              =    -448.65187359 Ry
     estimated scf accuracy    <       0.86757714 Ry

     iteration # 15     ecut=   124.00 Ry     beta= 0.70
     Davidson diagonalization with overlap
     ethr =  1.17E-04,  avg # of iterations =  1.1

     negative rho (up, down):  6.129E-04 0.000E+00

     total cpu time spent up to now is       24.0 secs

     total energy              =    -448.65299425 Ry
     estimated scf accuracy    <       0.84975996 Ry

     iteration # 16     ecut=   124.00 Ry     beta= 0.70
     Davidson diagonalization with overlap
     ethr =  1.17E-04,  avg # of iterations =  1.0

     negative rho (up, down):  7.668E-04 0.000E+00

     total cpu time spent up to now is       25.2 secs

     total energy              =    -448.60064810 Ry
     estimated scf accuracy    <       0.81252776 Ry

     iteration # 17     ecut=   124.00 Ry     beta= 0.70
     Davidson diagonalization with overlap
     ethr =  1.17E-04,  avg # of iterations =  2.4

     negative rho (up, down):  8.611E-04 0.000E+00

     total cpu time spent up to now is       26.6 secs

     total energy              =    -448.56988760 Ry
     estimated scf accuracy    <       0.44609405 Ry

     iteration # 18     ecut=   124.00 Ry     beta= 0.70
     Davidson diagonalization with overlap
     ethr =  1.17E-04,  avg # of iterations =  3.8

     negative rho (up, down):  9.913E-04 0.000E+00

     total cpu time spent up to now is       28.1 secs

     total energy              =    -448.56709451 Ry
     estimated scf accuracy    <       0.05972274 Ry

     iteration # 19     ecut=   124.00 Ry     beta= 0.70
     Davidson diagonalization with overlap
     ethr =  1.17E-04,  avg # of iterations =  4.0

     negative rho (up, down):  1.013E-03 0.000E+00

     total cpu time spent up to now is       29.6 secs

     total energy              =    -448.58302838 Ry
     estimated scf accuracy    <       0.07805605 Ry

     iteration # 20     ecut=   124.00 Ry     beta= 0.70
     Davidson diagonalization with overlap
     ethr =  1.17E-04,  avg # of iterations =  1.0

     negative rho (up, down):  1.044E-03 0.000E+00

     total cpu time spent up to now is       30.9 secs

     total energy              =    -448.58663617 Ry
     estimated scf accuracy    <       0.10942320 Ry

     iteration # 21     ecut=   124.00 Ry     beta= 0.70
     Davidson diagonalization with overlap
     ethr =  1.17E-04,  avg # of iterations =  1.2

     negative rho (up, down):  9.928E-04 0.000E+00

     total cpu time spent up to now is       32.2 secs

     total energy              =    -448.58710599 Ry
     estimated scf accuracy    <       0.15836688 Ry

     iteration # 22     ecut=   124.00 Ry     beta= 0.70
     Davidson diagonalization with overlap
     ethr =  1.17E-04,  avg # of iterations =  1.1

     negative rho (up, down):  1.050E-03 0.000E+00

     total cpu time spent up to now is       33.4 secs

     total energy              =    -448.59280047 Ry
     estimated scf accuracy    <       0.16282291 Ry

     iteration # 23     ecut=   124.00 Ry     beta= 0.70
     Davidson diagonalization with overlap
     ethr =  1.17E-04,  avg # of iterations =  1.0

     negative rho (up, down):  8.722E-04 0.000E+00

     total cpu time spent up to now is       34.7 secs

     total energy              =    -448.56100929 Ry
     estimated scf accuracy    <       0.26755357 Ry

     iteration # 24     ecut=   124.00 Ry     beta= 0.70
     Davidson diagonalization with overlap
     ethr =  1.17E-04,  avg # of iterations =  3.6

     negative rho (up, down):  8.340E-04 0.000E+00

     total cpu time spent up to now is       36.2 secs

     total energy              =    -448.57833945 Ry
     estimated scf accuracy    <       0.00149442 Ry

     iteration # 25     ecut=   124.00 Ry     beta= 0.70
     Davidson diagonalization with overlap
     ethr =  5.34E-06,  avg # of iterations =  4.9

     negative rho (up, down):  8.425E-04 0.000E+00

     total cpu time spent up to now is       38.1 secs

     total energy              =    -448.57919312 Ry
     estimated scf accuracy    <       0.01254205 Ry

     iteration # 26     ecut=   124.00 Ry     beta= 0.70
     Davidson diagonalization with overlap
     ethr =  5.34E-06,  avg # of iterations =  1.8

     negative rho (up, down):  9.125E-04 0.000E+00

     total cpu time spent up to now is       39.4 secs

     total energy              =    -448.57638382 Ry
     estimated scf accuracy    <       0.01771531 Ry

     iteration # 27     ecut=   124.00 Ry     beta= 0.70
     Davidson diagonalization with overlap
     ethr =  5.34E-06,  avg # of iterations =  4.0

     negative rho (up, down):  9.144E-04 0.000E+00

     total cpu time spent up to now is       41.2 secs

     total energy              =    -448.57745427 Ry
     estimated scf accuracy    <       0.00050294 Ry

     iteration # 28     ecut=   124.00 Ry     beta= 0.70
     Davidson diagonalization with overlap
     ethr =  1.80E-06,  avg # of iterations =  1.2

     negative rho (up, down):  9.244E-04 0.000E+00

     total cpu time spent up to now is       42.4 secs

     total energy              =    -448.57743871 Ry
     estimated scf accuracy    <       0.00035034 Ry

     iteration # 29     ecut=   124.00 Ry     beta= 0.70
     Davidson diagonalization with overlap
     ethr =  1.25E-06,  avg # of iterations =  1.2

     negative rho (up, down):  9.319E-04 0.000E+00

     total cpu time spent up to now is       43.7 secs

     total energy              =    -448.57743347 Ry
     estimated scf accuracy    <       0.00009054 Ry

     iteration # 30     ecut=   124.00 Ry     beta= 0.70
     Davidson diagonalization with overlap
     ethr =  3.23E-07,  avg # of iterations =  3.0

     negative rho (up, down):  9.345E-04 0.000E+00

     total cpu time spent up to now is       45.1 secs

     total energy              =    -448.57744087 Ry
     estimated scf accuracy    <       0.00000548 Ry

     iteration # 31     ecut=   124.00 Ry     beta= 0.70
     Davidson diagonalization with overlap
     ethr =  1.96E-08,  avg # of iterations =  4.7

     negative rho (up, down):  9.329E-04 0.000E+00

     total cpu time spent up to now is       46.8 secs

     total energy              =    -448.57744341 Ry
     estimated scf accuracy    <       0.00000857 Ry

     iteration # 32     ecut=   124.00 Ry     beta= 0.70
     Davidson diagonalization with overlap
     ethr =  1.96E-08,  avg # of iterations =  1.3

     negative rho (up, down):  9.329E-04 0.000E+00

     total cpu time spent up to now is       48.1 secs

     total energy              =    -448.57744401 Ry
     estimated scf accuracy    <       0.00000012 Ry

     iteration # 33     ecut=   124.00 Ry     beta= 0.70
     Davidson diagonalization with overlap
     ethr =  4.38E-10,  avg # of iterations =  4.8

     negative rho (up, down):  9.329E-04 0.000E+00

     total cpu time spent up to now is       49.9 secs

     total energy              =    -448.57744410 Ry
     estimated scf accuracy    <       0.00000007 Ry

     iteration # 34     ecut=   124.00 Ry     beta= 0.70
     Davidson diagonalization with overlap
     ethr =  2.37E-10,  avg # of iterations =  1.1

     negative rho (up, down):  9.328E-04 0.000E+00

     total cpu time spent up to now is       51.1 secs

     total energy              =    -448.57744411 Ry
     estimated scf accuracy    <       0.00000003 Ry

     iteration # 35     ecut=   124.00 Ry     beta= 0.70
     Davidson diagonalization with overlap
     ethr =  9.44E-11,  avg # of iterations =  2.0

     negative rho (up, down):  9.329E-04 0.000E+00

     total cpu time spent up to now is       52.6 secs

     End of self-consistent calculation

          k = 0.0000 0.0000 0.0000 (  4457 PWs)   bands (ev):

   -71.2834 -41.5177 -37.3413 -37.3413 -37.3413 -17.6367 -17.6367 -17.6367
     8.3749  12.2663  12.2663  14.6415  14.6415  14.6415  16.6874  16.6874
    18.3502  18.3502

          k = 0.0000 0.0000 0.0909 (  4449 PWs)   bands (ev):

   -71.2833 -41.5162 -37.3431 -37.3411 -37.3411 -17.6564 -17.6355 -17.6355
     8.5314  12.3366  12.3397  14.6301  14.6301  14.6742  16.6003  16.7192
    18.1388  18.1388

          k = 0.0000 0.0000 0.1818 (  4457 PWs)   bands (ev):

   -71.2829 -41.5122 -37.3480 -37.3405 -37.3405 -17.7087 -17.6320 -17.6320
     8.9879  12.5145  12.5541  14.6034  14.6034  14.7658  16.3476  16.7873
    17.6434  17.6434

          k = 0.0000 0.0000 0.2727 (  4452 PWs)   bands (ev):

   -71.2823 -41.5069 -37.3544 -37.3397 -37.3397 -17.7766 -17.6275 -17.6275
     9.7041  12.6985  12.8902  14.5786  14.5786  14.8955  15.9588  16.7927
    17.0924  17.0924

          k = 0.0000 0.0000 0.3636 (  4480 PWs)   bands (ev):

   -71.2818 -41.5021 -37.3602 -37.3389 -37.3389 -17.8384 -17.6234 -17.6234
    10.6048  12.7134  13.3034  14.5697  14.5697  15.0271  15.4945  16.5871
    16.6413  16.6413

          k = 0.0000 0.0000 0.4545 (  4460 PWs)   bands (ev):

   -71.2815 -41.4992 -37.3637 -37.3385 -37.3385 -17.8749 -17.6209 -17.6209
    11.5463  12.3601  13.6691  14.5731  14.5731  15.0972  15.1125  16.2908
    16.3871  16.3871

          k = 0.0000 0.0909 0.0909 (  4457 PWs)   bands (ev):

   -71.2831 -41.5147 -37.3435 -37.3424 -37.3408 -17.6567 -17.6532 -17.6341
     8.6853  12.4052  12.4120  14.5615  14.6119  14.7543  16.5872  16.6949
    17.9071  17.9260

          k = 0.0000 0.0909 0.1818 (  4468 PWs)   bands (ev):

   -71.2827 -41.5105 -37.3481 -37.3423 -37.3402 -17.7070 -17.6509 -17.6306
     9.1334  12.5804  12.6195  14.4931  14.5668  14.8530  16.3927  16.7542
    17.4402  17.4741

          k = 0.0000 0.0909 0.2727 (  4463 PWs)   bands (ev):

   -71.2822 -41.5050 -37.3546 -37.3417 -37.3395 -17.7743 -17.6460 -17.6260
     9.8341  12.7617  12.9365  14.4539  14.5150  14.9253  16.0620  16.7096
    17.0073  17.0475

          k = 0.0000 0.0909 0.3636 (  4461 PWs)   bands (ev):

   -71.2817 -41.5000 -37.3605 -37.3412 -37.3387 -17.8356 -17.6414 -17.6217
    10.7094  12.7668  13.3215  14.4542  14.4688  14.9337  15.6799  16.3528
    16.7602  16.8419

          k = 0.0000 0.0909 0.4545 (  4449 PWs)   bands (ev):

   -71.2814 -41.4970 -37.3640 -37.3409 -37.3383 -17.8718 -17.6387 -17.6191
    11.6143  12.4142  13.6588  14.4122  14.4796  14.8934  15.3998  16.0865
    16.6423  16.6610

          k = 0.0000 0.1818 0.1818 (  4467 PWs)   bands (ev):

   -71.2823 -41.5060 -37.3493 -37.3463 -37.3397 -17.7068 -17.6970 -17.6268
     9.5543  12.7085  12.8412  14.3463  14.4811  14.9152  16.4331  16.7213
    16.9922  17.2003

          k = 0.0000 0.1818 0.2727 (  4453 PWs)   bands (ev):

   -71.2818 -41.5000 -37.3551 -37.3472 -37.3389 -17.7683 -17.6951 -17.6217
    10.2021  12.8265  13.1564  14.2428  14.3955  14.8510  16.2927  16.5000
    16.8566  17.0462

          k = 0.0000 0.1818 0.3636 (  4451 PWs)   bands (ev):

   -71.2813 -41.4945 -37.3612 -37.3473 -37.3382 -17.8282 -17.6894 -17.6171
    10.9873  12.7891  13.4919  14.2098  14.3598  14.6764  16.0373  16.1969
    16.9430  17.0580

          k = 0.0000 0.1818 0.4545 (  4452 PWs)   bands (ev):

   -71.2810 -41.4912 -37.3649 -37.3472 -37.3378 -17.8636 -17.6860 -17.6144
    11.7544  12.4770  13.7464  14.2477  14.3715  14.4973  15.8833  15.9823
    16.9395  17.1359

          k = 0.0000 0.2727 0.2727 (  4472 PWs)   bands (ev):

   -71.2812 -41.4934 -37.3569 -37.3533 -37.3381 -17.7654 -17.7539 -17.6162
    10.7409  12.7954  13.5274  14.0660  14.3363  14.6248  16.3029  16.4928
    16.7598  17.1905

          k = 0.0000 0.2727 0.3636 (  4464 PWs)   bands (ev):

   -71.2807 -41.4873 -37.3623 -37.3552 -37.3375 -17.8184 -17.7518 -17.6111
    11.3342  12.6509  13.9019  13.9715  14.3512  14.4389  16.1359  16.4686
    16.8947  17.4216

          k = 0.0000 0.2727 0.4545 (  4445 PWs)   bands (ev):

   -71.2804 -41.4837 -37.3661 -37.3556 -37.3371 -17.8527 -17.7475 -17.6081
    11.8256  12.4155  13.9796  14.1076  14.1307  14.7142  15.9095  16.4372
    17.0514  17.6293

          k = 0.0000 0.3636 0.3636 (  4458 PWs)   bands (ev):

   -71.2802 -41.4807 -37.3639 -37.3618 -37.3368 -17.8124 -17.8057 -17.6056
    11.6222  12.4534  13.8121  14.0562  14.4151  14.7448  16.2294  16.7393
    16.7783  17.7640

          k = 0.0000 0.3636 0.4545 (  4464 PWs)   bands (ev):

   -71.2799 -41.4767 -37.3673 -37.3633 -37.3364 -17.8427 -17.8036 -17.6023
    11.7867  12.3020  13.7668  13.8530  14.7229  15.3030  16.0085  16.8074
    16.9222  18.0199

          k = 0.0000 0.4545 0.4545 (  4464 PWs)   bands (ev):

   -71.2797 -41.4726 -37.3680 -37.3677 -37.3360 -17.8372 -17.8362 -17.5989
    11.7303  12.2288  13.6636  13.6923  15.3466  15.7266  16.3095  16.4674
    17.0467  18.2497

          k = 0.0909 0.0909 0.0909 (  4487 PWs)   bands (ev):

   -71.2830 -41.5131 -37.3432 -37.3432 -37.3418 -17.6567 -17.6519 -17.6519
     8.8368  12.4781  12.4781  14.5418  14.5418  14.8173  16.6295  16.6295
    17.5513  18.1209

          k = 0.0909 0.0909 0.1818 (  4473 PWs)   bands (ev):

   -71.2826 -41.5088 -37.3481 -37.3426 -37.3417 -17.7053 -17.6505 -17.6484
     9.2776  12.6614  12.6697  14.4479  14.4897  14.8844  16.4408  16.7230
    17.1463  17.6223

          k = 0.0909 0.0909 0.2727 (  4461 PWs)   bands (ev):

   -71.2820 -41.5032 -37.3547 -37.3418 -37.3413 -17.7721 -17.6449 -17.6438
     9.9645  12.8442  12.9659  14.3948  14.4184  14.8805  16.1549  16.6655
    16.9712  17.0777

          k = 0.0909 0.0909 0.3636 (  4456 PWs)   bands (ev):

   -71.2815 -41.4980 -37.3607 -37.3410 -37.3410 -17.8330 -17.6398 -17.6396
    10.8171  12.8389  13.3216  14.3312  14.4152  14.8125  15.8326  16.3972
    16.6440  17.0374

          k = 0.0909 0.0909 0.4545 (  4456 PWs)   bands (ev):

   -71.2812 -41.4949 -37.3643 -37.3407 -37.3406 -17.8689 -17.6370 -17.6368
    11.6895  12.4811  13.6320  14.2240  14.5049  14.7409  15.5981  16.1287
    16.4074  17.1161

          k = 0.0909 0.1818 0.1818 (  4454 PWs)   bands (ev):

   -71.2821 -41.5042 -37.3490 -37.3465 -37.3416 -17.7047 -17.6956 -17.6453
     9.6944  12.7942  12.8854  14.3140  14.3935  14.8491  16.4904  16.6975
    16.8990  17.3805

          k = 0.0909 0.1818 0.2727 (  4466 PWs)   bands (ev):

   -71.2816 -41.4981 -37.3551 -37.3472 -37.3410 -17.7662 -17.6934 -17.6400
    10.3338  12.9285  13.1719  14.2041  14.3022  14.6966  16.3653  16.6010
    16.8931  17.0903

          k = 0.0909 0.1818 0.3636 (  4452 PWs)   bands (ev):

   -71.2811 -41.4925 -37.3613 -37.3471 -37.3405 -17.8257 -17.6877 -17.6351
    11.1045  12.8961  13.4560  14.1360  14.2868  14.5446  16.1716  16.2884
    16.7621  17.3013

          k = 0.0909 0.1818 0.4545 (  4460 PWs)   bands (ev):

   -71.2808 -41.4892 -37.3651 -37.3470 -37.3401 -17.8609 -17.6843 -17.6322
    11.8505  12.5742  13.6749  14.0657  14.3786  14.4787  15.9933  16.0567
    16.5834  17.6229

          k = 0.0909 0.2727 0.2727 (  4472 PWs)   bands (ev):

   -71.2811 -41.4915 -37.3566 -37.3534 -37.3404 -17.7630 -17.7525 -17.6343
    10.8734  12.9018  13.5361  14.0314  14.2326  14.4415  16.4033  16.6292
    16.7428  17.2968

          k = 0.0909 0.2727 0.3636 (  4453 PWs)   bands (ev):

   -71.2806 -41.4854 -37.3622 -37.3550 -37.3398 -17.8163 -17.7501 -17.6291
    11.4629  12.7594  13.8537  13.9320  14.2433  14.3342  16.2057  16.5440
    16.8029  17.6432

          k = 0.0909 0.2727 0.4545 (  4446 PWs)   bands (ev):

   -71.2803 -41.4817 -37.3661 -37.3554 -37.3394 -17.8505 -17.7459 -17.6260
    11.9424  12.5266  13.9082  13.9344  14.1744  14.6458  15.9391  16.5261
    16.7300  18.0564

          k = 0.0909 0.3636 0.3636 (  4460 PWs)   bands (ev):

   -71.2801 -41.4788 -37.3636 -37.3617 -37.3391 -17.8103 -17.8042 -17.6236
    11.7533  12.5613  13.7841  13.9775  14.3769  14.6002  16.2075  16.6310
    16.8663  18.0239

          k = 0.0909 0.3636 0.4545 (  4451 PWs)   bands (ev):

   -71.2798 -41.4748 -37.3671 -37.3630 -37.3387 -17.8409 -17.8020 -17.6203
    11.9098  12.4140  13.7364  13.8066  14.6523  15.1514  15.9786  16.5927
    16.9432  18.2325

          k = 0.0909 0.4545 0.4545 (  4461 PWs)   bands (ev):

   -71.2795 -41.4707 -37.3677 -37.3675 -37.3383 -17.8356 -17.8348 -17.6169
    11.8532  12.3403  13.6419  13.6666  15.2886  15.5832  16.1215  16.1865
    17.1158  18.4282

          k = 0.1818 0.1818 0.1818 (  4446 PWs)   bands (ev):

   -71.2817 -41.4993 -37.3483 -37.3483 -37.3454 -17.7020 -17.6920 -17.6920
    10.0970  13.0110  13.0110  14.2274  14.2274  14.6210  16.6277  16.6277
    16.9402  17.5864

          k = 0.1818 0.1818 0.2727 (  4464 PWs)   bands (ev):

   -71.2812 -41.4930 -37.3550 -37.3475 -37.3462 -17.7604 -17.6904 -17.6872
    10.7066  13.1958  13.2119  14.1073  14.1097  14.3555  16.5224  16.6701
    17.0652  17.1971

          k = 0.1818 0.1818 0.3636 (  4446 PWs)   bands (ev):

   -71.2807 -41.4872 -37.3616 -37.3467 -37.3465 -17.8192 -17.6835 -17.6828
    11.4216  13.1279  13.4033  13.9827  14.1257  14.2978  16.4128  16.4158
    16.6583  17.6737

          k = 0.1818 0.1818 0.4545 (  4446 PWs)   bands (ev):

   -71.2804 -41.4837 -37.3655 -37.3467 -37.3462 -17.8539 -17.6801 -17.6793
    12.0807  12.7708  13.5776  13.8664  14.2143  14.4315  16.0455  16.3561
    16.4219  18.0062

          k = 0.1818 0.2727 0.2727 (  4442 PWs)   bands (ev):

   -71.2807 -41.4863 -37.3559 -37.3536 -37.3464 -17.7566 -17.7487 -17.6827
    11.2478  13.1920  13.5569  13.9411  14.0000  14.0614  16.5181  16.6717
    16.9909  17.6002

          k = 0.1818 0.2727 0.3636 (  4457 PWs)   bands (ev):

   -71.2802 -41.4801 -37.3619 -37.3546 -37.3459 -17.8106 -17.7455 -17.6771
    11.8229  13.0451  13.6962  13.8339  14.0183  14.1290  16.3022  16.5189
    16.8999  17.8853

          k = 0.1818 0.2727 0.4545 (  4459 PWs)   bands (ev):

   -71.2799 -41.4765 -37.3660 -37.3547 -37.3457 -17.8447 -17.7415 -17.6737
    12.2600  12.8055  13.6977  13.7706  14.0755  14.4807  15.9698  16.3866
    16.8244  18.0689

          k = 0.1818 0.3636 0.3636 (  4474 PWs)   bands (ev):

   -71.2797 -41.4737 -37.3628 -37.3615 -37.3453 -17.8048 -17.8003 -17.6716
    12.1283  12.8445  13.7130  13.8041  14.2497  14.2607  16.1939  16.3823
    17.1232  18.0270

          k = 0.1818 0.3636 0.4545 (  4460 PWs)   bands (ev):

   -71.2794 -41.4698 -37.3666 -37.3623 -37.3449 -17.8362 -17.7979 -17.6682
    12.2602  12.7092  13.6630  13.7009  14.4250  14.7912  15.9284  16.2552
    17.1870  18.2306

          k = 0.1818 0.4545 0.4545 (  4471 PWs)   bands (ev):

   -71.2791 -41.4659 -37.3670 -37.3668 -37.3445 -17.8315 -17.8308 -17.6650
    12.2055  12.6384  13.5887  13.6057  15.0273  15.0915  15.8304  15.9971
    17.3430  18.4818

          k = 0.2727 0.2727 0.2727 (  4452 PWs)   bands (ev):

   -71.2801 -41.4795 -37.3550 -37.3550 -37.3532 -17.7500 -17.7437 -17.7437
    11.7840  13.5776  13.5776  13.6437  13.8274  13.8274  16.5181  16.5181
    17.3943  17.3943

          k = 0.2727 0.2727 0.3636 (  4453 PWs)   bands (ev):

   -71.2796 -41.4733 -37.3617 -37.3541 -37.3540 -17.8032 -17.7399 -17.7391
    12.3135  13.2842  13.5898  13.7252  13.8057  13.9941  16.2836  16.3401
    17.2657  17.8156

          k = 0.2727 0.2727 0.4545 (  4456 PWs)   bands (ev):

   -71.2793 -41.4696 -37.3660 -37.3541 -37.3536 -17.8371 -17.7363 -17.7353
    12.6334  13.0441  13.5974  13.6611  13.9212  14.3486  15.9222  16.2331
    17.2201  18.1005

          k = 0.2727 0.3636 0.3636 (  4475 PWs)   bands (ev):

   -71.2792 -41.4670 -37.3618 -37.3612 -37.3534 -17.7977 -17.7952 -17.7339
    12.6844  13.1541  13.6318  13.6868  13.8666  14.0781  16.1464  16.1523
    17.5230  17.9881

          k = 0.2727 0.3636 0.4545 (  4474 PWs)   bands (ev):

   -71.2789 -41.4633 -37.3659 -37.3614 -37.3531 -17.8300 -17.7924 -17.7306
    12.7673  13.0573  13.5935  13.6249  14.0822  14.4158  15.8446  16.0807
    17.5756  18.2628

          k = 0.2727 0.4545 0.4545 (  4474 PWs)   bands (ev):

   -71.2786 -41.4595 -37.3659 -37.3658 -37.3526 -17.8260 -17.8257 -17.7275
    12.7317  13.0195  13.5352  13.5539  14.5380  14.5738  15.7028  15.9319
    17.7233  18.5137

          k = 0.3636 0.3636 0.3636 (  4452 PWs)   bands (ev):

   -71.2787 -41.4609 -37.3609 -37.3609 -37.3608 -17.7913 -17.7905 -17.7905
    13.1705  13.3137  13.5787  13.5787  13.8754  13.8754  15.9985  15.9985
    17.9934  17.9934

          k = 0.3636 0.3636 0.4545 (  4461 PWs)   bands (ev):

   -71.2784 -41.4572 -37.3653 -37.3607 -37.3604 -17.8243 -17.7877 -17.7871
    13.1774  13.2893  13.5789  13.7195  13.7949  14.1671  15.7683  15.9335
    18.0042  18.3420

          k = 0.3636 0.4545 0.4545 (  4478 PWs)   bands (ev):

   -71.2781 -41.4536 -37.3650 -37.3650 -37.3600 -17.8210 -17.8209 -17.7844
    13.2720  13.3600  13.5192  13.5926  14.0949  14.1494  15.6696  15.8130
    18.1916  18.5381

          k = 0.4545 0.4545 0.4545 (  4479 PWs)   bands (ev):

   -71.2778 -41.4501 -37.3645 -37.3644 -37.3644 -17.8181 -17.8181 -17.8180
    13.4551  13.5619  13.5619  13.8478  13.8638  13.8638  15.6614  15.6614
    18.5520  18.5520

     the Fermi energy is    15.5075 ev

!    total energy              =    -448.57744410 Ry
     estimated scf accuracy    <          2.7E-09 Ry
     smearing contrib. (-TS)   =       0.00002003 Ry
     internal energy E=F+TS    =    -448.57746413 Ry

     The total energy is F=E-TS. E is the sum of the following terms:
     one-electron contribution =    -165.89955722 Ry
     hartree contribution      =      96.62905521 Ry
     xc contribution           =     -52.70960326 Ry
     ewald contribution        =    -250.44606283 Ry
     one-center paw contrib.   =     -76.15129603 Ry

     convergence has been achieved in  35 iterations

     negative rho (up, down):  9.329E-04 0.000E+00

     Forces acting on atoms (cartesian axes, Ry/au):

     atom    1 type  1   force =     0.00000000    0.00000000    0.00000000
     atom    2 type  2   force =     0.00000000    0.00000000    0.00000000

     Total force =     0.000000     Total SCF correction =     0.000000


     Computing stress (Cartesian axis) and pressure


     negative rho (up, down):  9.329E-04 0.000E+00
          total   stress  (Ry/bohr**3)                   (kbar)     P=     -151.11
  -0.00102720   0.00000000   0.00000000         -151.11        0.00        0.00
   0.00000000  -0.00102720   0.00000000            0.00     -151.11        0.00
   0.00000000   0.00000000  -0.00102720            0.00        0.00     -151.11


     Writing all to output data dir ./TiFe.save/ :
     XML data file, charge density, pseudopotentials, collected wavefunctions

     init_run     :      1.47s CPU      1.53s WALL (       1 calls)
     electrons    :     48.53s CPU     50.85s WALL (       1 calls)
     forces       :      0.26s CPU      0.28s WALL (       1 calls)
     stress       :      1.58s CPU      1.64s WALL (       1 calls)

     Called by init_run:
     wfcinit      :      0.46s CPU      0.46s WALL (       1 calls)
     potinit      :      0.21s CPU      0.22s WALL (       1 calls)
     hinit0       :      0.63s CPU      0.64s WALL (       1 calls)

     Called by electrons:
     c_bands      :     31.28s CPU     31.88s WALL (      35 calls)
     sum_band     :      9.90s CPU     10.78s WALL (      35 calls)
     v_of_rho     :      0.89s CPU      0.96s WALL (      36 calls)
     newd         :      4.55s CPU      5.27s WALL (      36 calls)
     PAW_pot      :      1.93s CPU      1.98s WALL (      36 calls)
     mix_rho      :      0.10s CPU      0.11s WALL (      35 calls)

     Called by c_bands:
     init_us_2    :      0.68s CPU      0.70s WALL (    4088 calls)
     cegterg      :     30.03s CPU     30.57s WALL (    1960 calls)

     Called by *egterg:
     cdiaghg      :      2.46s CPU      2.50s WALL (    7001 calls)
     h_psi        :     24.73s CPU     25.19s WALL (    7057 calls)
     s_psi        :      0.47s CPU      0.48s WALL (    7057 calls)
     g_psi        :      0.10s CPU      0.10s WALL (    5041 calls)

     Called by h_psi:
     h_psi:calbec :      0.97s CPU      0.98s WALL (    7057 calls)
     vloc_psi     :     23.15s CPU     23.59s WALL (    7057 calls)
     add_vuspsi   :      0.49s CPU      0.50s WALL (    7057 calls)

     General routines
     calbec       :      1.39s CPU      1.42s WALL (    9969 calls)
     fft          :      0.95s CPU      1.06s WALL (     491 calls)
     ffts         :      0.12s CPU      0.13s WALL (      71 calls)
     fftw         :     23.23s CPU     23.65s WALL (  208056 calls)
     interpolate  :      0.15s CPU      0.16s WALL (      36 calls)

     Parallel routines

     PWSCF        :     52.13s CPU     54.76s WALL


   This run was terminated on:   0:51:46  25Oct2025            

=------------------------------------------------------------------------------=
   JOB DONE.
=------------------------------------------------------------------------------=
