
     Program PWSCF v.7.4 starts on 25Oct2025 at  0:39:49 

     This program is part of the open-source Quantum ESPRESSO suite
     for quantum simulation of materials; please cite
         "P. Giannozzi et al., J. Phys.:Condens. Matter 21 395502 (2009);
         "P. Giannozzi et al., J. Phys.:Condens. Matter 29 465901 (2017);
         "P. Giannozzi et al., J. Chem. Phys. 152 154105 (2020);
          URL http://www.quantum-espresso.org", 
     in publications or presentations arising from this work. More details at
     http://www.quantum-espresso.org/quote

     Parallel version (MPI & OpenMP), running on       8 processor cores
     Number of MPI processes:                 8
     Threads/MPI process:                     1

     MPI processes distributed on     1 nodes
     210427 MiB available memory on the printing compute node when the environment starts

     Reading input from TiFe_10.in

     Current dimensions of program PWSCF are:
     Max number of different atomic species (ntypx) = 10
     Max number of k-points (npk) =  40000
     Max angular momentum in pseudopotentials (lmaxx) =  4
     file Fe.pbe-spn-kjpaw_psl.0.2.1.UPF: wavefunction(s)  3D renormalized

     IMPORTANT: XC functional enforced from input :
     Exchange-correlation= PBE
                           (   1   4   3   4   0   0   0)
     Any further DFT definition will be discarded
     Please, verify this is what you really want

     Message from routine setup:
     using ibrav=0 with symmetry is DISCOURAGED, use correct ibrav instead

     R & G space division:  proc/nbgrp/npool/nimage =       8
     Subspace diagonalization in iterative solution of the eigenvalue problem:
     a serial algorithm will be used


     Parallelization info
     --------------------
     sticks:   dense  smooth     PW     G-vecs:    dense   smooth      PW
     Min         524     150     43                25624     3928     617
     Max         525     151     44                25629     3933     620
     Sum        4197    1201    349               205021    31439    4945

     Using Slab Decomposition



     bravais-lattice index     =            0
     lattice parameter (alat)  =       5.5155  a.u.
     unit-cell volume          =     167.7861 (a.u.)^3
     number of atoms/cell      =            2
     number of atomic types    =            2
     number of electrons       =        28.00
     number of Kohn-Sham states=           18
     kinetic-energy cutoff     =     124.0000  Ry
     charge density cutoff     =    1736.0000  Ry
     scf convergence threshold =      1.0E-08
     mixing beta               =       0.7000
     number of iterations used =            8  plain     mixing
     Exchange-correlation= PBE
                           (   1   4   3   4   0   0   0)

     celldm(1)=   5.515506  celldm(2)=   0.000000  celldm(3)=   0.000000
     celldm(4)=   0.000000  celldm(5)=   0.000000  celldm(6)=   0.000000

     crystal axes: (cart. coord. in units of alat)
               a(1) = (   1.000000   0.000000   0.000000 )  
               a(2) = (   0.000000   1.000000   0.000000 )  
               a(3) = (   0.000000   0.000000   1.000000 )  

     reciprocal axes: (cart. coord. in units 2 pi/alat)
               b(1) = (  1.000000  0.000000  0.000000 )  
               b(2) = (  0.000000  1.000000  0.000000 )  
               b(3) = (  0.000000  0.000000  1.000000 )  


     PseudoPot. # 1 for Fe read from file:
     ../pseudos/Fe.pbe-spn-kjpaw_psl.0.2.1.UPF
     MD5 check sum: e86618425769142926afa95317d90200
     Pseudo is Projector augmented-wave + core cor, Zval = 16.0
     Generated using "atomic" code by A. Dal Corso  v.5.0.99 svn rev. 10869
     Shape of augmentation charge: PSQ
     Using radial grid of 1191 points,  6 beta functions with: 
                l(1) =   0
                l(2) =   0
                l(3) =   1
                l(4) =   1
                l(5) =   2
                l(6) =   2
     Q(r) pseudized with 0 coefficients 


     PseudoPot. # 2 for Ti read from file:
     ../pseudos/ti_pbe_v1.4.uspp.F.UPF
     MD5 check sum: 88a00a6731bd790ddea75d31a80cb452
     Pseudo is Ultrasoft + core correction, Zval = 12.0
     Generated by new atomic code, or converted to UPF format
     Using radial grid of  851 points,  6 beta functions with: 
                l(1) =   0
                l(2) =   0
                l(3) =   1
                l(4) =   1
                l(5) =   2
                l(6) =   2
     Q(r) pseudized with  6 coefficients,  rinner =    1.000   1.000   1.000
                                                       1.000   1.000

     atomic species   valence    mass     pseudopotential
     Fe               16.00    55.84500     Fe( 1.00)
     Ti               12.00    47.86700     Ti( 1.00)

     48 Sym. Ops., with inversion, found



   Cartesian axes

     site n.     atom                  positions (alat units)
         1        Fe     tau(   1) = (   0.5000000   0.5000000   0.5000000  )
         2        Ti     tau(   2) = (   0.0000000   0.0000000   0.0000000  )

     number of k points=    56  Marzari-Vanderbilt smearing, width (Ry)=  0.0050
                       cart. coord. in units 2pi/alat
        k(    1) = (   0.0000000   0.0000000   0.0000000), wk =   0.0015026
        k(    2) = (   0.0000000   0.0000000   0.0909091), wk =   0.0090158
        k(    3) = (   0.0000000   0.0000000   0.1818182), wk =   0.0090158
        k(    4) = (   0.0000000   0.0000000   0.2727273), wk =   0.0090158
        k(    5) = (   0.0000000   0.0000000   0.3636364), wk =   0.0090158
        k(    6) = (   0.0000000   0.0000000   0.4545455), wk =   0.0090158
        k(    7) = (   0.0000000   0.0909091   0.0909091), wk =   0.0180316
        k(    8) = (   0.0000000   0.0909091   0.1818182), wk =   0.0360631
        k(    9) = (   0.0000000   0.0909091   0.2727273), wk =   0.0360631
        k(   10) = (   0.0000000   0.0909091   0.3636364), wk =   0.0360631
        k(   11) = (   0.0000000   0.0909091   0.4545455), wk =   0.0360631
        k(   12) = (   0.0000000   0.1818182   0.1818182), wk =   0.0180316
        k(   13) = (   0.0000000   0.1818182   0.2727273), wk =   0.0360631
        k(   14) = (   0.0000000   0.1818182   0.3636364), wk =   0.0360631
        k(   15) = (   0.0000000   0.1818182   0.4545455), wk =   0.0360631
        k(   16) = (   0.0000000   0.2727273   0.2727273), wk =   0.0180316
        k(   17) = (   0.0000000   0.2727273   0.3636364), wk =   0.0360631
        k(   18) = (   0.0000000   0.2727273   0.4545455), wk =   0.0360631
        k(   19) = (   0.0000000   0.3636364   0.3636364), wk =   0.0180316
        k(   20) = (   0.0000000   0.3636364   0.4545455), wk =   0.0360631
        k(   21) = (   0.0000000   0.4545455   0.4545455), wk =   0.0180316
        k(   22) = (   0.0909091   0.0909091   0.0909091), wk =   0.0120210
        k(   23) = (   0.0909091   0.0909091   0.1818182), wk =   0.0360631
        k(   24) = (   0.0909091   0.0909091   0.2727273), wk =   0.0360631
        k(   25) = (   0.0909091   0.0909091   0.3636364), wk =   0.0360631
        k(   26) = (   0.0909091   0.0909091   0.4545455), wk =   0.0360631
        k(   27) = (   0.0909091   0.1818182   0.1818182), wk =   0.0360631
        k(   28) = (   0.0909091   0.1818182   0.2727273), wk =   0.0721262
        k(   29) = (   0.0909091   0.1818182   0.3636364), wk =   0.0721262
        k(   30) = (   0.0909091   0.1818182   0.4545455), wk =   0.0721262
        k(   31) = (   0.0909091   0.2727273   0.2727273), wk =   0.0360631
        k(   32) = (   0.0909091   0.2727273   0.3636364), wk =   0.0721262
        k(   33) = (   0.0909091   0.2727273   0.4545455), wk =   0.0721262
        k(   34) = (   0.0909091   0.3636364   0.3636364), wk =   0.0360631
        k(   35) = (   0.0909091   0.3636364   0.4545455), wk =   0.0721262
        k(   36) = (   0.0909091   0.4545455   0.4545455), wk =   0.0360631
        k(   37) = (   0.1818182   0.1818182   0.1818182), wk =   0.0120210
        k(   38) = (   0.1818182   0.1818182   0.2727273), wk =   0.0360631
        k(   39) = (   0.1818182   0.1818182   0.3636364), wk =   0.0360631
        k(   40) = (   0.1818182   0.1818182   0.4545455), wk =   0.0360631
        k(   41) = (   0.1818182   0.2727273   0.2727273), wk =   0.0360631
        k(   42) = (   0.1818182   0.2727273   0.3636364), wk =   0.0721262
        k(   43) = (   0.1818182   0.2727273   0.4545455), wk =   0.0721262
        k(   44) = (   0.1818182   0.3636364   0.3636364), wk =   0.0360631
        k(   45) = (   0.1818182   0.3636364   0.4545455), wk =   0.0721262
        k(   46) = (   0.1818182   0.4545455   0.4545455), wk =   0.0360631
        k(   47) = (   0.2727273   0.2727273   0.2727273), wk =   0.0120210
        k(   48) = (   0.2727273   0.2727273   0.3636364), wk =   0.0360631
        k(   49) = (   0.2727273   0.2727273   0.4545455), wk =   0.0360631
        k(   50) = (   0.2727273   0.3636364   0.3636364), wk =   0.0360631
        k(   51) = (   0.2727273   0.3636364   0.4545455), wk =   0.0721262
        k(   52) = (   0.2727273   0.4545455   0.4545455), wk =   0.0360631
        k(   53) = (   0.3636364   0.3636364   0.3636364), wk =   0.0120210
        k(   54) = (   0.3636364   0.3636364   0.4545455), wk =   0.0360631
        k(   55) = (   0.3636364   0.4545455   0.4545455), wk =   0.0360631
        k(   56) = (   0.4545455   0.4545455   0.4545455), wk =   0.0120210

     Dense  grid:   205021 G-vectors     FFT dimensions: (  75,  75,  75)

     Smooth grid:    31439 G-vectors     FFT dimensions: (  40,  40,  40)

     Estimated max dynamical RAM per process >     108.33 MB

     Estimated total dynamical RAM >     866.68 MB

     Check: negative core charge=   -0.000002

     Initial potential from superposition of free atoms

     starting charge      26.9995, renormalised to      28.0000

     negative rho (up, down):  1.338E-03 0.000E+00
     Starting wfcs are   23 randomized atomic wfcs
     Checking if some PAW data can be deallocated... 

     total cpu time spent up to now is        1.3 secs

     per-process dynamical memory:   134.8 Mb

     Self-consistent Calculation

     iteration #  1     ecut=   124.00 Ry     beta= 0.70
     Davidson diagonalization with overlap
     ethr =  1.00E-02,  avg # of iterations =  2.1

     negative rho (up, down):  7.109E-05 0.000E+00

     total cpu time spent up to now is        2.4 secs

     WARNING: integrated charge=    27.99834167, expected=    28.00000000

     total energy              =    -435.24037286 Ry
     estimated scf accuracy    <      17.04253213 Ry

     iteration #  2     ecut=   124.00 Ry     beta= 0.70
     Davidson diagonalization with overlap
     ethr =  1.00E-02,  avg # of iterations =  6.1

     negative rho (up, down):  3.283E-05 0.000E+00

     total cpu time spent up to now is        4.1 secs

     WARNING: integrated charge=    27.99873451, expected=    28.00000000

     total energy              =    -448.52512987 Ry
     estimated scf accuracy    <      64.63978009 Ry

     iteration #  3     ecut=   124.00 Ry     beta= 0.70
     Davidson diagonalization with overlap
     ethr =  1.00E-02,  avg # of iterations =  3.1

     negative rho (up, down):  2.552E-04 0.000E+00

     total cpu time spent up to now is        5.4 secs

     WARNING: integrated charge=    27.99898995, expected=    28.00000000

     total energy              =    -448.55720136 Ry
     estimated scf accuracy    <      16.40765128 Ry

     iteration #  4     ecut=   124.00 Ry     beta= 0.70
     Davidson diagonalization with overlap
     ethr =  1.00E-02,  avg # of iterations =  2.1

     negative rho (up, down):  2.824E-04 0.000E+00

     total cpu time spent up to now is        6.5 secs

     WARNING: integrated charge=    27.99901047, expected=    28.00000000

     total energy              =    -449.09649757 Ry
     estimated scf accuracy    <       4.45609835 Ry

     iteration #  5     ecut=   124.00 Ry     beta= 0.70
     Davidson diagonalization with overlap
     ethr =  1.00E-02,  avg # of iterations =  1.0

     negative rho (up, down):  2.741E-04 0.000E+00

     total cpu time spent up to now is        7.4 secs

     WARNING: integrated charge=    27.99900032, expected=    28.00000000

     total energy              =    -449.10423785 Ry
     estimated scf accuracy    <       4.12304699 Ry

     iteration #  6     ecut=   124.00 Ry     beta= 0.70
     Davidson diagonalization with overlap
     ethr =  1.00E-02,  avg # of iterations =  1.0

     negative rho (up, down):  5.449E-04 0.000E+00

     total cpu time spent up to now is        8.4 secs

     WARNING: integrated charge=    27.99920142, expected=    28.00000000

     total energy              =    -448.55240986 Ry
     estimated scf accuracy    <       3.87260765 Ry

     iteration #  7     ecut=   124.00 Ry     beta= 0.70
     Davidson diagonalization with overlap
     ethr =  1.00E-02,  avg # of iterations =  1.2

     negative rho (up, down):  7.441E-04 0.000E+00

     total cpu time spent up to now is        9.3 secs

     WARNING: integrated charge=    27.99936510, expected=    28.00000000

     total energy              =    -448.55624894 Ry
     estimated scf accuracy    <       0.85620060 Ry

     iteration #  8     ecut=   124.00 Ry     beta= 0.70
     Davidson diagonalization with overlap
     ethr =  3.06E-03,  avg # of iterations =  1.7

     negative rho (up, down):  9.622E-04 0.000E+00

     total cpu time spent up to now is       10.3 secs

     WARNING: integrated charge=    27.99974173, expected=    28.00000000

     total energy              =    -448.56414317 Ry
     estimated scf accuracy    <       0.21808857 Ry

     iteration #  9     ecut=   124.00 Ry     beta= 0.70
     Davidson diagonalization with overlap
     ethr =  7.79E-04,  avg # of iterations =  3.4

     negative rho (up, down):  1.024E-03 0.000E+00

     total cpu time spent up to now is       11.4 secs

     WARNING: integrated charge=    27.99990639, expected=    28.00000000

     total energy              =    -448.57356809 Ry
     estimated scf accuracy    <       0.11071125 Ry

     iteration # 10     ecut=   124.00 Ry     beta= 0.70
     Davidson diagonalization with overlap
     ethr =  3.95E-04,  avg # of iterations =  3.6

     negative rho (up, down):  8.672E-04 0.000E+00

     total cpu time spent up to now is       12.5 secs

     WARNING: integrated charge=    27.99995689, expected=    28.00000000

     total energy              =    -448.56413507 Ry
     estimated scf accuracy    <       0.07994526 Ry

     iteration # 11     ecut=   124.00 Ry     beta= 0.70
     Davidson diagonalization with overlap
     ethr =  2.86E-04,  avg # of iterations =  3.0

     negative rho (up, down):  8.261E-04 0.000E+00

     total cpu time spent up to now is       13.5 secs

     WARNING: integrated charge=    27.99998549, expected=    28.00000000

     total energy              =    -448.62401067 Ry
     estimated scf accuracy    <       0.27152434 Ry

     iteration # 12     ecut=   124.00 Ry     beta= 0.70
     Davidson diagonalization with overlap
     ethr =  2.86E-04,  avg # of iterations =  1.7
     Minimization algorithm failed to find Fermi energy: reverting to bisection
     Possible cause: smearing is larger than the electronic band-gap.

     negative rho (up, down):  8.674E-04 0.000E+00

     total cpu time spent up to now is       14.5 secs

     WARNING: integrated charge=    27.99997742, expected=    28.00000000

     total energy              =    -448.59568867 Ry
     estimated scf accuracy    <       0.60498881 Ry

     iteration # 13     ecut=   124.00 Ry     beta= 0.70
     Davidson diagonalization with overlap
     ethr =  2.86E-04,  avg # of iterations =  1.0

     negative rho (up, down):  7.001E-04 0.000E+00

     total cpu time spent up to now is       15.4 secs

     WARNING: integrated charge=    27.99997827, expected=    28.00000000

     total energy              =    -448.64658881 Ry
     estimated scf accuracy    <       0.25056865 Ry

     iteration # 14     ecut=   124.00 Ry     beta= 0.70
     Davidson diagonalization with overlap
     ethr =  2.86E-04,  avg # of iterations =  1.9

     negative rho (up, down):  1.088E-03 0.000E+00

     total cpu time spent up to now is       16.4 secs

     WARNING: integrated charge=    27.99999502, expected=    28.00000000

     total energy              =    -448.48826990 Ry
     estimated scf accuracy    <       0.87632211 Ry

     iteration # 15     ecut=   124.00 Ry     beta= 0.70
     Davidson diagonalization with overlap
     ethr =  2.86E-04,  avg # of iterations =  4.7

     negative rho (up, down):  1.070E-03 0.000E+00

     total cpu time spent up to now is       17.7 secs

     WARNING: integrated charge=    28.00005797, expected=    28.00000000

     total energy              =    -448.59172686 Ry
     estimated scf accuracy    <       0.22982950 Ry

     iteration # 16     ecut=   124.00 Ry     beta= 0.70
     Davidson diagonalization with overlap
     ethr =  2.86E-04,  avg # of iterations =  1.0

     negative rho (up, down):  9.661E-04 0.000E+00

     total cpu time spent up to now is       18.6 secs

     WARNING: integrated charge=    27.99999463, expected=    28.00000000

     total energy              =    -448.57936519 Ry
     estimated scf accuracy    <       0.13784825 Ry

     iteration # 17     ecut=   124.00 Ry     beta= 0.70
     Davidson diagonalization with overlap
     ethr =  2.86E-04,  avg # of iterations =  1.5

     negative rho (up, down):  9.904E-04 0.000E+00

     total cpu time spent up to now is       19.6 secs

     WARNING: integrated charge=    28.00000281, expected=    28.00000000

     total energy              =    -448.58552218 Ry
     estimated scf accuracy    <       0.00500041 Ry

     iteration # 18     ecut=   124.00 Ry     beta= 0.70
     Davidson diagonalization with overlap
     ethr =  1.79E-05,  avg # of iterations =  2.8

     negative rho (up, down):  9.887E-04 0.000E+00

     total cpu time spent up to now is       20.7 secs

     WARNING: integrated charge=    28.00000327, expected=    28.00000000

     total energy              =    -448.58575604 Ry
     estimated scf accuracy    <       0.01063451 Ry

     iteration # 19     ecut=   124.00 Ry     beta= 0.70
     Davidson diagonalization with overlap
     ethr =  1.79E-05,  avg # of iterations =  1.0

     negative rho (up, down):  9.597E-04 0.000E+00

     total cpu time spent up to now is       21.6 secs

     total energy              =    -448.58476898 Ry
     estimated scf accuracy    <       0.00861218 Ry

     iteration # 20     ecut=   124.00 Ry     beta= 0.70
     Davidson diagonalization with overlap
     ethr =  1.79E-05,  avg # of iterations =  2.2

     negative rho (up, down):  9.628E-04 0.000E+00

     total cpu time spent up to now is       22.6 secs

     total energy              =    -448.58524050 Ry
     estimated scf accuracy    <       0.00017770 Ry

     iteration # 21     ecut=   124.00 Ry     beta= 0.70
     Davidson diagonalization with overlap
     ethr =  6.35E-07,  avg # of iterations =  3.7

     negative rho (up, down):  9.556E-04 0.000E+00

     total cpu time spent up to now is       23.7 secs

     total energy              =    -448.58524018 Ry
     estimated scf accuracy    <       0.00035520 Ry

     iteration # 22     ecut=   124.00 Ry     beta= 0.70
     Davidson diagonalization with overlap
     ethr =  6.35E-07,  avg # of iterations =  1.5

     negative rho (up, down):  9.588E-04 0.000E+00

     total cpu time spent up to now is       24.6 secs

     total energy              =    -448.58526212 Ry
     estimated scf accuracy    <       0.00002816 Ry

     iteration # 23     ecut=   124.00 Ry     beta= 0.70
     Davidson diagonalization with overlap
     ethr =  1.01E-07,  avg # of iterations =  2.1

     negative rho (up, down):  9.566E-04 0.000E+00

     total cpu time spent up to now is       25.6 secs

     total energy              =    -448.58524942 Ry
     estimated scf accuracy    <       0.00012975 Ry

     iteration # 24     ecut=   124.00 Ry     beta= 0.70
     Davidson diagonalization with overlap
     ethr =  1.01E-07,  avg # of iterations =  2.9

     negative rho (up, down):  9.574E-04 0.000E+00

     total cpu time spent up to now is       26.7 secs

     total energy              =    -448.58525533 Ry
     estimated scf accuracy    <       0.00000444 Ry

     iteration # 25     ecut=   124.00 Ry     beta= 0.70
     Davidson diagonalization with overlap
     ethr =  1.58E-08,  avg # of iterations =  3.7

     negative rho (up, down):  9.572E-04 0.000E+00

     total cpu time spent up to now is       27.8 secs

     total energy              =    -448.58525679 Ry
     estimated scf accuracy    <       0.00000359 Ry

     iteration # 26     ecut=   124.00 Ry     beta= 0.70
     Davidson diagonalization with overlap
     ethr =  1.28E-08,  avg # of iterations =  1.0

     negative rho (up, down):  9.600E-04 0.000E+00

     total cpu time spent up to now is       28.7 secs

     total energy              =    -448.58525518 Ry
     estimated scf accuracy    <       0.00000495 Ry

     iteration # 27     ecut=   124.00 Ry     beta= 0.70
     Davidson diagonalization with overlap
     ethr =  1.28E-08,  avg # of iterations =  3.9

     negative rho (up, down):  9.595E-04 0.000E+00

     total cpu time spent up to now is       29.9 secs

     total energy              =    -448.58525610 Ry
     estimated scf accuracy    <       0.00000456 Ry

     iteration # 28     ecut=   124.00 Ry     beta= 0.70
     Davidson diagonalization with overlap
     ethr =  1.28E-08,  avg # of iterations =  1.2

     negative rho (up, down):  9.590E-04 0.000E+00

     total cpu time spent up to now is       30.8 secs

     total energy              =    -448.58525613 Ry
     estimated scf accuracy    <       0.00000052 Ry

     iteration # 29     ecut=   124.00 Ry     beta= 0.70
     Davidson diagonalization with overlap
     ethr =  1.86E-09,  avg # of iterations =  3.6

     negative rho (up, down):  9.592E-04 0.000E+00

     total cpu time spent up to now is       31.9 secs

     total energy              =    -448.58525625 Ry
     estimated scf accuracy    <       0.00000034 Ry

     iteration # 30     ecut=   124.00 Ry     beta= 0.70
     Davidson diagonalization with overlap
     ethr =  1.23E-09,  avg # of iterations =  1.4

     negative rho (up, down):  9.592E-04 0.000E+00

     total cpu time spent up to now is       32.9 secs

     End of self-consistent calculation

          k = 0.0000 0.0000 0.0000 (  3887 PWs)   bands (ev):

   -68.8013 -38.6875 -34.8632 -34.8632 -34.8632 -14.7755 -14.7755 -14.7755
    10.5122  14.1760  14.1760  17.0535  17.0535  17.0535  19.4536  19.4536
    21.4473  21.4473

          k = 0.0000 0.0000 0.0909 (  3895 PWs)   bands (ev):

   -68.8010 -38.6853 -34.8658 -34.8628 -34.8628 -14.8070 -14.7736 -14.7736
    10.6884  14.2611  14.2699  17.0405  17.0405  17.0924  19.3441  19.4950
    21.1886  21.1886

          k = 0.0000 0.0000 0.1818 (  3903 PWs)   bands (ev):

   -68.8001 -38.6792 -34.8729 -34.8616 -34.8616 -14.8908 -14.7687 -14.7687
    11.1990  14.5103  14.5147  17.0109  17.0109  17.2015  19.0281  19.5896
    20.5874  20.5874

          k = 0.0000 0.0000 0.2727 (  3900 PWs)   bands (ev):

   -68.7990 -38.6714 -34.8821 -34.8601 -34.8601 -14.9991 -14.7622 -14.7622
    11.9897  14.7980  14.9029  16.9861  16.9861  17.3565  18.5447  19.6300
    19.9224  19.9224

          k = 0.0000 0.0000 0.3636 (  3920 PWs)   bands (ev):

   -68.7981 -38.6641 -34.8905 -34.8588 -34.8588 -15.0974 -14.7562 -14.7562
    12.9612  14.9320  15.3898  16.9823  16.9823  17.5146  17.9712  19.3778
    19.3778  19.4446

          k = 0.0000 0.0000 0.4545 (  3916 PWs)   bands (ev):

   -68.7975 -38.6599 -34.8954 -34.8580 -34.8580 -15.1552 -14.7527 -14.7527
    13.9336  14.6919  15.8278  16.9925  16.9925  17.4804  17.6177  19.0693
    19.0693  19.1299

          k = 0.0000 0.0909 0.0909 (  3890 PWs)   bands (ev):

   -68.8006 -38.6829 -34.8670 -34.8641 -34.8624 -14.8083 -14.8013 -14.7717
    10.8609  14.3435  14.3630  16.9552  17.0195  17.1920  19.3286  19.4646
    20.9044  20.9306

          k = 0.0000 0.0909 0.1818 (  3899 PWs)   bands (ev):

   -68.7998 -38.6764 -34.8736 -34.8641 -34.8612 -14.8882 -14.7987 -14.7665
    11.3599  14.5683  14.6196  16.8724  16.9683  17.3134  19.0853  19.5474
    20.3454  20.3785

          k = 0.0000 0.0909 0.2727 (  3916 PWs)   bands (ev):

   -68.7987 -38.6680 -34.8829 -34.8633 -34.8598 -14.9953 -14.7913 -14.7597
    12.1288  14.8559  14.9807  16.8281  16.9111  17.4012  18.6736  19.5215
    19.8306  19.8638

          k = 0.0000 0.0909 0.3636 (  3933 PWs)   bands (ev):

   -68.7978 -38.6603 -34.8915 -34.8626 -34.8584 -15.0925 -14.7844 -14.7534
    13.0655  14.9829  15.4258  16.8352  16.8592  17.4069  18.2040  19.0979
    19.5207  19.6835

          k = 0.0000 0.0909 0.4545 (  3911 PWs)   bands (ev):

   -68.7972 -38.6557 -34.8965 -34.8621 -34.8576 -15.1497 -14.7803 -14.7497
    13.9909  14.7375  15.8240  16.7879  16.8749  17.3491  17.8684  18.7992
    19.3835  19.4889

          k = 0.0000 0.1818 0.1818 (  3910 PWs)   bands (ev):

   -68.7990 -38.6689 -34.8770 -34.8690 -34.8601 -14.8896 -14.8701 -14.7607
    11.8208  14.7194  14.9082  16.6924  16.8713  17.3940  19.1400  19.5043
    19.8148  20.0439

          k = 0.0000 0.1818 0.2727 (  3908 PWs)   bands (ev):

   -68.7979 -38.6591 -34.8853 -34.8715 -34.8587 -14.9853 -14.8684 -14.7530
    12.5152  14.8956  15.2992  16.5677  16.7798  17.3161  18.9590  19.2557
    19.6685  19.8602

          k = 0.0000 0.1818 0.3636 (  3903 PWs)   bands (ev):

   -68.7969 -38.6500 -34.8941 -34.8727 -34.8574 -15.0794 -14.8595 -14.7460
    13.3258  14.9492  15.6959  16.5313  16.7524  17.0990  18.6466  18.9088
    19.8033  19.8820

          k = 0.0000 0.1818 0.4545 (  3924 PWs)   bands (ev):

   -68.7964 -38.6447 -34.8995 -34.8732 -34.8567 -15.1350 -14.8540 -14.7418
    14.0680  14.7362  15.9810  16.5852  16.7904  16.8724  18.4723  18.6586
    19.8317  19.9830

          k = 0.0000 0.2727 0.2727 (  3912 PWs)   bands (ev):

   -68.7969 -38.6473 -34.8902 -34.8806 -34.8574 -14.9816 -14.9588 -14.7443
    13.0549  14.8766  15.7653  16.3530  16.7371  17.0401  19.0279  19.1947
    19.5687  20.0394

          k = 0.0000 0.2727 0.3636 (  3911 PWs)   bands (ev):

   -68.7959 -38.6365 -34.8979 -34.8857 -34.8561 -15.0624 -14.9565 -14.7362
    13.6023  14.7644  16.2244  16.2402  16.7051  16.9046  18.8419  19.1743
    19.7465  20.3247

          k = 0.0000 0.2727 0.4545 (  3913 PWs)   bands (ev):

   -68.7953 -38.6301 -34.9034 -34.8877 -34.8554 -15.1157 -14.9494 -14.7314
    14.0048  14.5863  16.2543  16.4334  16.4766  17.2720  18.5937  19.1266
    19.9718  20.5807

          k = 0.0000 0.3636 0.3636 (  3912 PWs)   bands (ev):

   -68.7949 -38.6241 -34.9023 -34.8967 -34.8550 -15.0523 -15.0391 -14.7272
    13.7738  14.5544  16.0480  16.3472  16.8478  17.3232  18.9764  19.5431
    19.5806  20.7422

          k = 0.0000 0.3636 0.4545 (  3925 PWs)   bands (ev):

   -68.7943 -38.6166 -34.9072 -34.9010 -34.8543 -15.0979 -15.0361 -14.7218
    13.8415  14.4170  15.9950  16.0997  17.2285  17.9850  18.7337  19.6082
    19.8027  21.0551

          k = 0.0000 0.4545 0.4545 (  3928 PWs)   bands (ev):

   -68.7938 -38.6086 -34.9095 -34.9088 -34.8536 -15.0881 -15.0863 -14.7161
    13.7218  14.3163  15.8705  15.9056  17.9386  18.4359  19.1384  19.3290
    19.8784  21.3353

          k = 0.0909 0.0909 0.0909 (  3890 PWs)   bands (ev):

   -68.8003 -38.6803 -34.8665 -34.8665 -34.8627 -14.8089 -14.7995 -14.7995
    11.0304  14.4395  14.4395  16.9321  16.9321  17.2722  19.3826  19.3826
    20.4744  21.1675

          k = 0.0909 0.0909 0.1818 (  3913 PWs)   bands (ev):

   -68.7995 -38.6736 -34.8738 -34.8653 -34.8626 -14.8855 -14.7983 -14.7944
    11.5195  14.6623  14.6879  16.8183  16.8712  17.3577  19.1460  19.5080
    19.9865  20.5637

          k = 0.0909 0.0909 0.2727 (  3921 PWs)   bands (ev):

   -68.7984 -38.6647 -34.8835 -34.8638 -34.8623 -14.9916 -14.7897 -14.7878
    12.2696  14.9663  15.0080  16.7587  16.7886  17.3527  18.7891  19.4614
    19.7878  19.9093

          k = 0.0909 0.0909 0.3636 (  3927 PWs)   bands (ev):

   -68.7975 -38.6565 -34.8923 -34.8624 -34.8621 -15.0878 -14.7817 -14.7816
    13.1760  15.0697  15.4259  16.6864  16.7917  17.2630  18.3912  19.1744
    19.3887  19.8918

          k = 0.0909 0.0909 0.4545 (  3922 PWs)   bands (ev):

   -68.7969 -38.6517 -34.8975 -34.8619 -34.8616 -15.1445 -14.7781 -14.7768
    14.0611  14.8055  15.7921  16.5585  16.9125  17.1696  18.1066  18.8872
    19.1033  20.0010

          k = 0.0909 0.1818 0.1818 (  3906 PWs)   bands (ev):

   -68.7987 -38.6658 -34.8765 -34.8700 -34.8628 -14.8861 -14.8681 -14.7900
    11.9758  14.8270  14.9595  16.6546  16.7594  17.3203  19.2121  19.4746
    19.6965  20.2712

          k = 0.0909 0.1818 0.2727 (  3915 PWs)   bands (ev):

   -68.7976 -38.6557 -34.8853 -34.8718 -34.8622 -14.9817 -14.8658 -14.7819
    12.6606  15.0183  15.3184  16.5232  16.6597  17.1327  19.0527  19.3813
    19.7042  19.9223

          k = 0.0909 0.1818 0.3636 (  3912 PWs)   bands (ev):

   -68.7966 -38.6464 -34.8945 -34.8724 -34.8613 -15.0753 -14.8568 -14.7743
    13.4539  15.0805  15.6475  16.4488  16.6541  16.9426  18.8050  19.0289
    19.5636  20.1980

          k = 0.0909 0.1818 0.4545 (  3922 PWs)   bands (ev):

   -68.7961 -38.6408 -34.9001 -34.8728 -34.8607 -15.1305 -14.8514 -14.7697
    14.1729  14.8502  15.8803  16.3833  16.7562  16.8893  18.6282  18.7321
    19.3571  20.6010

          k = 0.0909 0.2727 0.2727 (  3917 PWs)   bands (ev):

   -68.7966 -38.6439 -34.8897 -34.8810 -34.8611 -14.9775 -14.9568 -14.7729
    13.2050  15.0041  15.7749  16.3138  16.6014  16.8224  19.1489  19.3546
    19.5506  20.1799

          k = 0.0909 0.2727 0.3636 (  3903 PWs)   bands (ev):

   -68.7956 -38.6330 -34.8977 -34.8856 -34.8601 -15.0590 -14.9540 -14.7646
    13.7492  14.8933  16.1517  16.2054  16.5888  16.7633  18.9267  19.2671
    19.6246  20.6062

          k = 0.0909 0.2727 0.4545 (  3901 PWs)   bands (ev):

   -68.7950 -38.6265 -34.9036 -34.8873 -34.8594 -15.1121 -14.9470 -14.7596
    14.1370  14.7157  16.1684  16.2243  16.5476  17.1745  18.6328  19.2337
    19.5546  21.1031

          k = 0.0909 0.3636 0.3636 (  3919 PWs)   bands (ev):

   -68.7946 -38.6206 -34.9018 -34.8966 -34.8589 -15.0490 -15.0371 -14.7556
    13.9225  14.6825  16.0171  16.2560  16.8047  17.1446  18.9365  19.4540
    19.6461  21.0660

          k = 0.0909 0.3636 0.4545 (  3907 PWs)   bands (ev):

   -68.7940 -38.6133 -34.9068 -34.9005 -34.8582 -15.0953 -15.0339 -14.7503
    13.9804  14.5488  15.9623  16.0477  17.1531  17.8022  18.6881  19.4176
    19.7423  21.3019

          k = 0.0909 0.4545 0.4545 (  3926 PWs)   bands (ev):

   -68.7935 -38.6054 -34.9090 -34.9083 -34.8576 -15.0859 -15.0843 -14.7447
    13.8615  14.4484  15.8480  15.8787  17.8807  18.2945  18.8720  18.9776
    19.9579  21.5309

          k = 0.1818 0.1818 0.1818 (  3905 PWs)   bands (ev):

   -68.7979 -38.6575 -34.8753 -34.8753 -34.8673 -14.8819 -14.8629 -14.8629
    12.4159  15.1049  15.1049  16.5536  16.5536  17.0507  19.3872  19.3872
    19.7571  20.5213

          k = 0.1818 0.1818 0.2727 (  3925 PWs)   bands (ev):

   -68.7968 -38.6465 -34.8856 -34.8736 -34.8697 -14.9721 -14.8613 -14.8560
    13.0648  15.3188  15.3924  16.4132  16.4184  16.7271  19.2546  19.4696
    19.8933  20.0732

          k = 0.1818 0.1818 0.3636 (  3903 PWs)   bands (ev):

   -68.7958 -38.6365 -34.8957 -34.8721 -34.8713 -15.0642 -14.8497 -14.8495
    13.7876  15.3793  15.5571  16.2767  16.4515  16.6527  19.1146  19.2040
    19.4047  20.6521

          k = 0.1818 0.1818 0.4545 (  3917 PWs)   bands (ev):

   -68.7953 -38.6305 -34.9017 -34.8722 -34.8712 -15.1185 -14.8459 -14.8424
    14.4021  15.0607  15.7481  16.1561  16.5738  16.8439  18.7851  19.0349
    19.1266  21.0280

          k = 0.1818 0.2727 0.2727 (  3917 PWs)   bands (ev):

   -68.7958 -38.6345 -34.8883 -34.8823 -34.8710 -14.9664 -14.9514 -14.8490
    13.6247  15.3516  15.7962  16.2133  16.2972  16.3791  19.2807  19.4717
    19.7888  20.5679

          k = 0.1818 0.2727 0.3636 (  3906 PWs)   bands (ev):

   -68.7948 -38.6235 -34.8974 -34.8852 -34.8707 -15.0497 -14.9470 -14.8401
    14.1572  15.2308  15.9443  16.0982  16.3607  16.4749  19.0425  19.2970
    19.6776  20.8724

          k = 0.1818 0.2727 0.4545 (  3905 PWs)   bands (ev):

   -68.7942 -38.6169 -34.9039 -34.8861 -34.8703 -15.1027 -14.9405 -14.8347
    14.4931  15.0337  15.9124  16.0453  16.4541  16.9446  18.6793  19.1281
    19.5834  21.1013

          k = 0.1818 0.3636 0.3636 (  3906 PWs)   bands (ev):

   -68.7938 -38.6115 -34.9003 -34.8965 -34.8696 -15.0402 -15.0317 -14.8312
    14.3469  15.0166  15.9403  16.0604  16.6707  16.7041  18.9102  19.1555
    19.9502  21.0399

          k = 0.1818 0.3636 0.4545 (  3908 PWs)   bands (ev):

   -68.7933 -38.6043 -34.9060 -34.8993 -34.8690 -15.0882 -15.0280 -14.8260
    14.3748  14.8928  15.8846  15.9348  16.9024  17.3506  18.6246  18.9925
    20.0294  21.2895

          k = 0.1818 0.4545 0.4545 (  3913 PWs)   bands (ev):

   -68.7927 -38.5968 -34.9074 -34.9069 -34.8682 -15.0801 -15.0790 -14.8208
    14.2615  14.8003  15.7952  15.8177  17.6013  17.7181  18.5128  18.6956
    20.2252  21.5886

          k = 0.2727 0.2727 0.2727 (  3917 PWs)   bands (ev):

   -68.7947 -38.6222 -34.8865 -34.8865 -34.8815 -14.9551 -14.9444 -14.9444
    14.2035  15.8114  15.8114  15.8869  16.0927  16.0927  19.2914  19.2914
    20.2719  20.2719

          k = 0.2727 0.2727 0.3636 (  3908 PWs)   bands (ev):

   -68.7938 -38.6109 -34.8974 -34.8849 -34.8841 -15.0377 -14.9379 -14.9378
    14.6907  15.5006  15.8061  15.9963  16.0996  16.3201  19.0325  19.0750
    20.1141  20.7835

          k = 0.2727 0.2727 0.4545 (  3912 PWs)   bands (ev):

   -68.7932 -38.6042 -34.9044 -34.8851 -34.8839 -15.0904 -14.9340 -14.9299
    14.8790  15.2800  15.7902  15.9482  16.2941  16.7731  18.6208  18.9439
    20.0583  21.1355

          k = 0.2727 0.3636 0.3636 (  3928 PWs)   bands (ev):

   -68.7928 -38.5994 -34.8984 -34.8964 -34.8836 -15.0287 -15.0247 -14.9292
    14.9706  15.3693  15.8571  15.9618  16.2069  16.4528  18.8611  18.8665
    20.4277  20.9889

          k = 0.2727 0.3636 0.4545 (  3920 PWs)   bands (ev):

   -68.7922 -38.5925 -34.9050 -34.8975 -34.8830 -15.0790 -15.0202 -14.9240
    14.9356  15.2845  15.8166  15.8801  16.5060  16.8740  18.5186  18.7758
    20.4922  21.3253

          k = 0.2727 0.4545 0.4545 (  3915 PWs)   bands (ev):

   -68.7917 -38.5855 -34.9054 -34.9051 -34.8821 -15.0725 -15.0719 -14.9193
    14.8563  15.2445  15.7493  15.7796  17.0415  17.0662  18.3414  18.6128
    20.6761  21.6268

          k = 0.3636 0.3636 0.3636 (  3918 PWs)   bands (ev):

   -68.7918 -38.5882 -34.8966 -34.8966 -34.8962 -15.0182 -15.0181 -15.0181
    15.3516  15.7344  15.8142  15.8142  16.1997  16.1997  18.6842  18.6842
    20.9946  20.9946

          k = 0.3636 0.3636 0.4545 (  3908 PWs)   bands (ev):

   -68.7913 -38.5816 -34.9040 -34.8962 -34.8955 -15.0705 -15.0143 -15.0119
    15.3504  15.5345  15.8491  15.9831  16.1976  16.5568  18.4199  18.6044
    21.0077  21.4199

          k = 0.3636 0.4545 0.4545 (  3927 PWs)   bands (ev):

   -68.7907 -38.5751 -34.9035 -34.9035 -34.8949 -15.0655 -15.0655 -15.0088
    15.4610  15.6230  15.7570  15.8727  16.4901  16.5402  18.2986  18.4679
    21.2371  21.6571

          k = 0.4545 0.4545 0.4545 (  3900 PWs)   bands (ev):

   -68.7902 -38.5689 -34.9026 -34.9024 -34.9024 -15.0617 -15.0617 -15.0612
    15.7016  15.8531  15.8531  16.1570  16.1570  16.1885  18.2884  18.2884
    21.6744  21.6744

     the Fermi energy is    18.0333 ev

!    total energy              =    -448.58525627 Ry
     estimated scf accuracy    <          1.1E-09 Ry
     smearing contrib. (-TS)   =       0.00003103 Ry
     internal energy E=F+TS    =    -448.58528731 Ry

     The total energy is F=E-TS. E is the sum of the following terms:
     one-electron contribution =    -148.60021916 Ry
     hartree contribution      =      90.69384624 Ry
     xc contribution           =     -52.92350844 Ry
     ewald contribution        =    -261.60110146 Ry
     one-center paw contrib.   =     -76.15430448 Ry

     convergence has been achieved in  30 iterations

     negative rho (up, down):  9.592E-04 0.000E+00

     Forces acting on atoms (cartesian axes, Ry/au):

     atom    1 type  1   force =     0.00000000    0.00000000    0.00000000
     atom    2 type  2   force =     0.00000000    0.00000000    0.00000000

     Total force =     0.000000     Total SCF correction =     0.000000


     Computing stress (Cartesian axis) and pressure


     negative rho (up, down):  9.592E-04 0.000E+00
          total   stress  (Ry/bohr**3)                   (kbar)     P=       75.84
   0.00051554   0.00000000   0.00000000           75.84        0.00        0.00
   0.00000000   0.00051554   0.00000000            0.00       75.84        0.00
   0.00000000   0.00000000   0.00051554            0.00        0.00       75.84


     Writing all to output data dir ./TiFe.save/ :
     XML data file, charge density, pseudopotentials, collected wavefunctions

     init_run     :      1.10s CPU      1.16s WALL (       1 calls)
     electrons    :     29.74s CPU     31.52s WALL (       1 calls)
     forces       :      0.23s CPU      0.25s WALL (       1 calls)
     stress       :      1.38s CPU      1.45s WALL (       1 calls)

     Called by init_run:
     wfcinit      :      0.31s CPU      0.33s WALL (       1 calls)
     potinit      :      0.37s CPU      0.39s WALL (       1 calls)
     hinit0       :      0.25s CPU      0.26s WALL (       1 calls)

     Called by electrons:
     c_bands      :     17.84s CPU     18.28s WALL (      30 calls)
     sum_band     :      6.20s CPU      6.86s WALL (      30 calls)
     v_of_rho     :      0.67s CPU      0.72s WALL (      31 calls)
     newd         :      3.43s CPU      4.00s WALL (      31 calls)
     PAW_pot      :      1.64s CPU      1.70s WALL (      31 calls)
     mix_rho      :      0.07s CPU      0.09s WALL (      30 calls)

     Called by c_bands:
     init_us_2    :      0.53s CPU      0.55s WALL (    3528 calls)
     cegterg      :     16.89s CPU     17.29s WALL (    1680 calls)

     Called by *egterg:
     cdiaghg      :      1.92s CPU      1.96s WALL (    5659 calls)
     h_psi        :     12.86s CPU     13.18s WALL (    5715 calls)
     s_psi        :      0.36s CPU      0.37s WALL (    5715 calls)
     g_psi        :      0.07s CPU      0.07s WALL (    3979 calls)

     Called by h_psi:
     h_psi:calbec :      0.69s CPU      0.71s WALL (    5715 calls)
     vloc_psi     :     11.71s CPU     12.00s WALL (    5715 calls)
     add_vuspsi   :      0.38s CPU      0.39s WALL (    5715 calls)

     General routines
     calbec       :      1.02s CPU      1.04s WALL (    8347 calls)
     fft          :      0.50s CPU      0.59s WALL (     426 calls)
     ffts         :      0.29s CPU      0.29s WALL (      61 calls)
     fftw         :     11.01s CPU     11.28s WALL (  172888 calls)
     interpolate  :      0.31s CPU      0.32s WALL (      31 calls)

     Parallel routines

     PWSCF        :     32.74s CPU     34.84s WALL


   This run was terminated on:   0:40:24  25Oct2025            

=------------------------------------------------------------------------------=
   JOB DONE.
=------------------------------------------------------------------------------=
