
     Program PWSCF v.7.4 starts on 25Oct2025 at  0:36: 2 

     This program is part of the open-source Quantum ESPRESSO suite
     for quantum simulation of materials; please cite
         "P. Giannozzi et al., J. Phys.:Condens. Matter 21 395502 (2009);
         "P. Giannozzi et al., J. Phys.:Condens. Matter 29 465901 (2017);
         "P. Giannozzi et al., J. Chem. Phys. 152 154105 (2020);
          URL http://www.quantum-espresso.org", 
     in publications or presentations arising from this work. More details at
     http://www.quantum-espresso.org/quote

     Parallel version (MPI & OpenMP), running on       8 processor cores
     Number of MPI processes:                 8
     Threads/MPI process:                     1

     MPI processes distributed on     1 nodes
     210628 MiB available memory on the printing compute node when the environment starts

     Reading input from TiFe_2.in

     Current dimensions of program PWSCF are:
     Max number of different atomic species (ntypx) = 10
     Max number of k-points (npk) =  40000
     Max angular momentum in pseudopotentials (lmaxx) =  4
     file Fe.pbe-spn-kjpaw_psl.0.2.1.UPF: wavefunction(s)  3D renormalized

     IMPORTANT: XC functional enforced from input :
     Exchange-correlation= PBE
                           (   1   4   3   4   0   0   0)
     Any further DFT definition will be discarded
     Please, verify this is what you really want

     Message from routine setup:
     using ibrav=0 with symmetry is DISCOURAGED, use correct ibrav instead

     R & G space division:  proc/nbgrp/npool/nimage =       8
     Subspace diagonalization in iterative solution of the eigenvalue problem:
     a serial algorithm will be used


     Parallelization info
     --------------------
     sticks:   dense  smooth     PW     G-vecs:    dense   smooth      PW
     Min         498     141     41                23582     3583     567
     Max         499     142     42                23587     3585     570
     Sum        3985    1129    333               188663    28671    4553

     Using Slab Decomposition



     bravais-lattice index     =            0
     lattice parameter (alat)  =       5.3643  a.u.
     unit-cell volume          =     154.3640 (a.u.)^3
     number of atoms/cell      =            2
     number of atomic types    =            2
     number of electrons       =        28.00
     number of Kohn-Sham states=           18
     kinetic-energy cutoff     =     124.0000  Ry
     charge density cutoff     =    1736.0000  Ry
     scf convergence threshold =      1.0E-08
     mixing beta               =       0.7000
     number of iterations used =            8  plain     mixing
     Exchange-correlation= PBE
                           (   1   4   3   4   0   0   0)

     celldm(1)=   5.364328  celldm(2)=   0.000000  celldm(3)=   0.000000
     celldm(4)=   0.000000  celldm(5)=   0.000000  celldm(6)=   0.000000

     crystal axes: (cart. coord. in units of alat)
               a(1) = (   1.000000   0.000000   0.000000 )  
               a(2) = (   0.000000   1.000000   0.000000 )  
               a(3) = (   0.000000   0.000000   1.000000 )  

     reciprocal axes: (cart. coord. in units 2 pi/alat)
               b(1) = (  1.000000  0.000000  0.000000 )  
               b(2) = (  0.000000  1.000000  0.000000 )  
               b(3) = (  0.000000  0.000000  1.000000 )  


     PseudoPot. # 1 for Fe read from file:
     ../pseudos/Fe.pbe-spn-kjpaw_psl.0.2.1.UPF
     MD5 check sum: e86618425769142926afa95317d90200
     Pseudo is Projector augmented-wave + core cor, Zval = 16.0
     Generated using "atomic" code by A. Dal Corso  v.5.0.99 svn rev. 10869
     Shape of augmentation charge: PSQ
     Using radial grid of 1191 points,  6 beta functions with: 
                l(1) =   0
                l(2) =   0
                l(3) =   1
                l(4) =   1
                l(5) =   2
                l(6) =   2
     Q(r) pseudized with 0 coefficients 


     PseudoPot. # 2 for Ti read from file:
     ../pseudos/ti_pbe_v1.4.uspp.F.UPF
     MD5 check sum: 88a00a6731bd790ddea75d31a80cb452
     Pseudo is Ultrasoft + core correction, Zval = 12.0
     Generated by new atomic code, or converted to UPF format
     Using radial grid of  851 points,  6 beta functions with: 
                l(1) =   0
                l(2) =   0
                l(3) =   1
                l(4) =   1
                l(5) =   2
                l(6) =   2
     Q(r) pseudized with  6 coefficients,  rinner =    1.000   1.000   1.000
                                                       1.000   1.000

     atomic species   valence    mass     pseudopotential
     Fe               16.00    55.84500     Fe( 1.00)
     Ti               12.00    47.86700     Ti( 1.00)

     48 Sym. Ops., with inversion, found



   Cartesian axes

     site n.     atom                  positions (alat units)
         1        Fe     tau(   1) = (   0.5000000   0.5000000   0.5000000  )
         2        Ti     tau(   2) = (   0.0000000   0.0000000   0.0000000  )

     number of k points=    56  Marzari-Vanderbilt smearing, width (Ry)=  0.0050
                       cart. coord. in units 2pi/alat
        k(    1) = (   0.0000000   0.0000000   0.0000000), wk =   0.0015026
        k(    2) = (   0.0000000   0.0000000   0.0909091), wk =   0.0090158
        k(    3) = (   0.0000000   0.0000000   0.1818182), wk =   0.0090158
        k(    4) = (   0.0000000   0.0000000   0.2727273), wk =   0.0090158
        k(    5) = (   0.0000000   0.0000000   0.3636364), wk =   0.0090158
        k(    6) = (   0.0000000   0.0000000   0.4545455), wk =   0.0090158
        k(    7) = (   0.0000000   0.0909091   0.0909091), wk =   0.0180316
        k(    8) = (   0.0000000   0.0909091   0.1818182), wk =   0.0360631
        k(    9) = (   0.0000000   0.0909091   0.2727273), wk =   0.0360631
        k(   10) = (   0.0000000   0.0909091   0.3636364), wk =   0.0360631
        k(   11) = (   0.0000000   0.0909091   0.4545455), wk =   0.0360631
        k(   12) = (   0.0000000   0.1818182   0.1818182), wk =   0.0180316
        k(   13) = (   0.0000000   0.1818182   0.2727273), wk =   0.0360631
        k(   14) = (   0.0000000   0.1818182   0.3636364), wk =   0.0360631
        k(   15) = (   0.0000000   0.1818182   0.4545455), wk =   0.0360631
        k(   16) = (   0.0000000   0.2727273   0.2727273), wk =   0.0180316
        k(   17) = (   0.0000000   0.2727273   0.3636364), wk =   0.0360631
        k(   18) = (   0.0000000   0.2727273   0.4545455), wk =   0.0360631
        k(   19) = (   0.0000000   0.3636364   0.3636364), wk =   0.0180316
        k(   20) = (   0.0000000   0.3636364   0.4545455), wk =   0.0360631
        k(   21) = (   0.0000000   0.4545455   0.4545455), wk =   0.0180316
        k(   22) = (   0.0909091   0.0909091   0.0909091), wk =   0.0120210
        k(   23) = (   0.0909091   0.0909091   0.1818182), wk =   0.0360631
        k(   24) = (   0.0909091   0.0909091   0.2727273), wk =   0.0360631
        k(   25) = (   0.0909091   0.0909091   0.3636364), wk =   0.0360631
        k(   26) = (   0.0909091   0.0909091   0.4545455), wk =   0.0360631
        k(   27) = (   0.0909091   0.1818182   0.1818182), wk =   0.0360631
        k(   28) = (   0.0909091   0.1818182   0.2727273), wk =   0.0721262
        k(   29) = (   0.0909091   0.1818182   0.3636364), wk =   0.0721262
        k(   30) = (   0.0909091   0.1818182   0.4545455), wk =   0.0721262
        k(   31) = (   0.0909091   0.2727273   0.2727273), wk =   0.0360631
        k(   32) = (   0.0909091   0.2727273   0.3636364), wk =   0.0721262
        k(   33) = (   0.0909091   0.2727273   0.4545455), wk =   0.0721262
        k(   34) = (   0.0909091   0.3636364   0.3636364), wk =   0.0360631
        k(   35) = (   0.0909091   0.3636364   0.4545455), wk =   0.0721262
        k(   36) = (   0.0909091   0.4545455   0.4545455), wk =   0.0360631
        k(   37) = (   0.1818182   0.1818182   0.1818182), wk =   0.0120210
        k(   38) = (   0.1818182   0.1818182   0.2727273), wk =   0.0360631
        k(   39) = (   0.1818182   0.1818182   0.3636364), wk =   0.0360631
        k(   40) = (   0.1818182   0.1818182   0.4545455), wk =   0.0360631
        k(   41) = (   0.1818182   0.2727273   0.2727273), wk =   0.0360631
        k(   42) = (   0.1818182   0.2727273   0.3636364), wk =   0.0721262
        k(   43) = (   0.1818182   0.2727273   0.4545455), wk =   0.0721262
        k(   44) = (   0.1818182   0.3636364   0.3636364), wk =   0.0360631
        k(   45) = (   0.1818182   0.3636364   0.4545455), wk =   0.0721262
        k(   46) = (   0.1818182   0.4545455   0.4545455), wk =   0.0360631
        k(   47) = (   0.2727273   0.2727273   0.2727273), wk =   0.0120210
        k(   48) = (   0.2727273   0.2727273   0.3636364), wk =   0.0360631
        k(   49) = (   0.2727273   0.2727273   0.4545455), wk =   0.0360631
        k(   50) = (   0.2727273   0.3636364   0.3636364), wk =   0.0360631
        k(   51) = (   0.2727273   0.3636364   0.4545455), wk =   0.0721262
        k(   52) = (   0.2727273   0.4545455   0.4545455), wk =   0.0360631
        k(   53) = (   0.3636364   0.3636364   0.3636364), wk =   0.0120210
        k(   54) = (   0.3636364   0.3636364   0.4545455), wk =   0.0360631
        k(   55) = (   0.3636364   0.4545455   0.4545455), wk =   0.0360631
        k(   56) = (   0.4545455   0.4545455   0.4545455), wk =   0.0120210

     Dense  grid:   188663 G-vectors     FFT dimensions: (  72,  72,  72)

     Smooth grid:    28671 G-vectors     FFT dimensions: (  40,  40,  40)

     Estimated max dynamical RAM per process >      99.87 MB

     Estimated total dynamical RAM >     798.93 MB

     Check: negative core charge=   -0.000002

     Initial potential from superposition of free atoms

     starting charge      26.9995, renormalised to      28.0000

     negative rho (up, down):  1.328E-03 0.000E+00
     Starting wfcs are   23 randomized atomic wfcs
     Checking if some PAW data can be deallocated... 

     total cpu time spent up to now is        1.7 secs

     per-process dynamical memory:   133.1 Mb

     Self-consistent Calculation

     iteration #  1     ecut=   124.00 Ry     beta= 0.70
     Davidson diagonalization with overlap
     ethr =  1.00E-02,  avg # of iterations =  2.1

     negative rho (up, down):  5.565E-05 0.000E+00

     total cpu time spent up to now is        2.7 secs

     total energy              =    -436.76235982 Ry
     estimated scf accuracy    <      15.17292465 Ry

     iteration #  2     ecut=   124.00 Ry     beta= 0.70
     Davidson diagonalization with overlap
     ethr =  1.00E-02,  avg # of iterations =  6.1

     negative rho (up, down):  6.838E-05 0.000E+00

     total cpu time spent up to now is        4.3 secs

     total energy              =    -448.40787319 Ry
     estimated scf accuracy    <      58.73334708 Ry

     iteration #  3     ecut=   124.00 Ry     beta= 0.70
     Davidson diagonalization with overlap
     ethr =  1.00E-02,  avg # of iterations =  3.1

     negative rho (up, down):  3.083E-04 0.000E+00

     total cpu time spent up to now is        5.5 secs

     total energy              =    -448.45377645 Ry
     estimated scf accuracy    <      14.74093045 Ry

     iteration #  4     ecut=   124.00 Ry     beta= 0.70
     Davidson diagonalization with overlap
     ethr =  1.00E-02,  avg # of iterations =  2.2

     negative rho (up, down):  2.943E-04 0.000E+00

     total cpu time spent up to now is        6.6 secs

     total energy              =    -449.00496898 Ry
     estimated scf accuracy    <       3.68441416 Ry

     iteration #  5     ecut=   124.00 Ry     beta= 0.70
     Davidson diagonalization with overlap
     ethr =  1.00E-02,  avg # of iterations =  1.0

     negative rho (up, down):  4.309E-04 0.000E+00

     total cpu time spent up to now is        7.4 secs

     total energy              =    -448.61860615 Ry
     estimated scf accuracy    <       3.42868923 Ry

     iteration #  6     ecut=   124.00 Ry     beta= 0.70
     Davidson diagonalization with overlap
     ethr =  1.00E-02,  avg # of iterations =  1.0

     negative rho (up, down):  4.369E-04 0.000E+00

     total cpu time spent up to now is        8.4 secs

     total energy              =    -448.73240217 Ry
     estimated scf accuracy    <       0.90631098 Ry

     iteration #  7     ecut=   124.00 Ry     beta= 0.70
     Davidson diagonalization with overlap
     ethr =  3.24E-03,  avg # of iterations =  1.0

     negative rho (up, down):  4.882E-04 0.000E+00

     total cpu time spent up to now is        9.2 secs

     total energy              =    -448.70127004 Ry
     estimated scf accuracy    <       0.96651366 Ry

     iteration #  8     ecut=   124.00 Ry     beta= 0.70
     Davidson diagonalization with overlap
     ethr =  3.24E-03,  avg # of iterations =  1.0

     negative rho (up, down):  1.107E-03 0.000E+00

     total cpu time spent up to now is       10.1 secs

     total energy              =    -448.45520117 Ry
     estimated scf accuracy    <       0.66862340 Ry

     iteration #  9     ecut=   124.00 Ry     beta= 0.70
     Davidson diagonalization with overlap
     ethr =  2.39E-03,  avg # of iterations =  3.4

     negative rho (up, down):  1.088E-03 0.000E+00

     total cpu time spent up to now is       11.2 secs

     total energy              =    -448.60972570 Ry
     estimated scf accuracy    <       0.43548556 Ry

     iteration # 10     ecut=   124.00 Ry     beta= 0.70
     Davidson diagonalization with overlap
     ethr =  1.56E-03,  avg # of iterations =  1.1

     negative rho (up, down):  8.122E-04 0.000E+00

     total cpu time spent up to now is       12.1 secs

     total energy              =    -448.54154196 Ry
     estimated scf accuracy    <       0.72419291 Ry

     iteration # 11     ecut=   124.00 Ry     beta= 0.70
     Davidson diagonalization with overlap
     ethr =  1.56E-03,  avg # of iterations =  1.1

     negative rho (up, down):  9.188E-04 0.000E+00

     total cpu time spent up to now is       12.9 secs

     total energy              =    -448.59140033 Ry
     estimated scf accuracy    <       0.05537511 Ry

     iteration # 12     ecut=   124.00 Ry     beta= 0.70
     Davidson diagonalization with overlap
     ethr =  1.98E-04,  avg # of iterations =  4.5

     negative rho (up, down):  4.342E-04 0.000E+00

     total cpu time spent up to now is       14.0 secs

     total energy              =    -448.36234254 Ry
     estimated scf accuracy    <       0.96093536 Ry

     iteration # 13     ecut=   124.00 Ry     beta= 0.70
     Davidson diagonalization with overlap
     ethr =  1.98E-04,  avg # of iterations =  5.0

     negative rho (up, down):  8.004E-04 0.000E+00

     total cpu time spent up to now is       15.4 secs

     total energy              =    -448.52679845 Ry
     estimated scf accuracy    <       1.59687785 Ry

     iteration # 14     ecut=   124.00 Ry     beta= 0.70
     Davidson diagonalization with overlap
     ethr =  1.98E-04,  avg # of iterations =  4.2

     negative rho (up, down):  9.437E-04 0.000E+00

     total cpu time spent up to now is       16.6 secs

     total energy              =    -448.56345507 Ry
     estimated scf accuracy    <       0.14327833 Ry

     iteration # 15     ecut=   124.00 Ry     beta= 0.70
     Davidson diagonalization with overlap
     ethr =  1.98E-04,  avg # of iterations =  1.9

     negative rho (up, down):  1.027E-03 0.000E+00

     total cpu time spent up to now is       17.5 secs

     total energy              =    -448.56510075 Ry
     estimated scf accuracy    <       0.01560980 Ry

     iteration # 16     ecut=   124.00 Ry     beta= 0.70
     Davidson diagonalization with overlap
     ethr =  5.57E-05,  avg # of iterations =  4.0

     negative rho (up, down):  9.351E-04 0.000E+00

     total cpu time spent up to now is       18.7 secs

     total energy              =    -448.56773543 Ry
     estimated scf accuracy    <       0.00489111 Ry

     iteration # 17     ecut=   124.00 Ry     beta= 0.70
     Davidson diagonalization with overlap
     ethr =  1.75E-05,  avg # of iterations =  3.4

     negative rho (up, down):  9.855E-04 0.000E+00

     total cpu time spent up to now is       19.7 secs

     total energy              =    -448.56840506 Ry
     estimated scf accuracy    <       0.00240216 Ry

     iteration # 18     ecut=   124.00 Ry     beta= 0.70
     Davidson diagonalization with overlap
     ethr =  8.58E-06,  avg # of iterations =  3.1

     negative rho (up, down):  9.696E-04 0.000E+00

     total cpu time spent up to now is       20.7 secs

     total energy              =    -448.56879192 Ry
     estimated scf accuracy    <       0.00086201 Ry

     iteration # 19     ecut=   124.00 Ry     beta= 0.70
     Davidson diagonalization with overlap
     ethr =  3.08E-06,  avg # of iterations =  1.2

     negative rho (up, down):  9.564E-04 0.000E+00

     total cpu time spent up to now is       21.6 secs

     total energy              =    -448.56879887 Ry
     estimated scf accuracy    <       0.00010895 Ry

     iteration # 20     ecut=   124.00 Ry     beta= 0.70
     Davidson diagonalization with overlap
     ethr =  3.89E-07,  avg # of iterations =  3.1

     negative rho (up, down):  9.610E-04 0.000E+00

     total cpu time spent up to now is       22.7 secs

     total energy              =    -448.56882869 Ry
     estimated scf accuracy    <       0.00007817 Ry

     iteration # 21     ecut=   124.00 Ry     beta= 0.70
     Davidson diagonalization with overlap
     ethr =  2.79E-07,  avg # of iterations =  1.1

     negative rho (up, down):  9.625E-04 0.000E+00

     total cpu time spent up to now is       23.6 secs

     total energy              =    -448.56883131 Ry
     estimated scf accuracy    <       0.00000960 Ry

     iteration # 22     ecut=   124.00 Ry     beta= 0.70
     Davidson diagonalization with overlap
     ethr =  3.43E-08,  avg # of iterations =  3.4

     negative rho (up, down):  9.606E-04 0.000E+00

     total cpu time spent up to now is       24.6 secs

     total energy              =    -448.56883304 Ry
     estimated scf accuracy    <       0.00000037 Ry

     iteration # 23     ecut=   124.00 Ry     beta= 0.70
     Davidson diagonalization with overlap
     ethr =  1.33E-09,  avg # of iterations =  4.8

     negative rho (up, down):  9.605E-04 0.000E+00

     total cpu time spent up to now is       26.0 secs

     total energy              =    -448.56883435 Ry
     estimated scf accuracy    <       0.00000687 Ry

     iteration # 24     ecut=   124.00 Ry     beta= 0.70
     Davidson diagonalization with overlap
     ethr =  1.33E-09,  avg # of iterations =  3.0

     negative rho (up, down):  9.608E-04 0.000E+00

     total cpu time spent up to now is       26.9 secs

     total energy              =    -448.56883342 Ry
     estimated scf accuracy    <       0.00001324 Ry

     iteration # 25     ecut=   124.00 Ry     beta= 0.70
     Davidson diagonalization with overlap
     ethr =  1.33E-09,  avg # of iterations =  3.1

     negative rho (up, down):  9.619E-04 0.000E+00

     total cpu time spent up to now is       28.0 secs

     total energy              =    -448.56883214 Ry
     estimated scf accuracy    <       0.00000589 Ry

     iteration # 26     ecut=   124.00 Ry     beta= 0.70
     Davidson diagonalization with overlap
     ethr =  1.33E-09,  avg # of iterations =  4.7

     negative rho (up, down):  9.614E-04 0.000E+00

     total cpu time spent up to now is       29.2 secs

     total energy              =    -448.56883289 Ry
     estimated scf accuracy    <       0.00000112 Ry

     iteration # 27     ecut=   124.00 Ry     beta= 0.70
     Davidson diagonalization with overlap
     ethr =  1.33E-09,  avg # of iterations =  3.4

     negative rho (up, down):  9.615E-04 0.000E+00

     total cpu time spent up to now is       30.3 secs

     End of self-consistent calculation

          k = 0.0000 0.0000 0.0000 (  3695 PWs)   bands (ev):

   -67.0536 -36.7093 -33.1200 -33.1200 -33.1200 -12.7648 -12.7648 -12.7648
    12.0793  15.4993  15.4993  18.7456  18.7456  18.7456  21.3987  21.3987
    23.6344  23.6344

          k = 0.0000 0.0000 0.0909 (  3639 PWs)   bands (ev):

   -67.0531 -36.7067 -33.1230 -33.1193 -33.1193 -12.8071 -12.7626 -12.7626
    12.2701  15.5926  15.6122  18.7317  18.7317  18.7891  21.2721  21.4477
    23.3416  23.3416

          k = 0.0000 0.0000 0.1818 (  3619 PWs)   bands (ev):

   -67.0519 -36.6996 -33.1311 -33.1176 -33.1176 -12.9194 -12.7565 -12.7565
    12.8200  15.8661  15.9108  18.7008  18.7008  18.9110  20.9076  21.5643
    22.6637  22.6637

          k = 0.0000 0.0000 0.2727 (  3619 PWs)   bands (ev):

   -67.0502 -36.6904 -33.1416 -33.1154 -33.1154 -13.0641 -12.7486 -12.7486
    13.6627  16.2744  16.2984  18.6773  18.6773  19.0846  20.3529  21.6362
    21.9159  21.9159

          k = 0.0000 0.0000 0.3636 (  3587 PWs)   bands (ev):

   -67.0487 -36.6820 -33.1511 -33.1134 -33.1134 -13.1948 -12.7413 -12.7413
    14.6794  16.5049  16.8373  18.6793  18.6793  19.2622  19.6982  21.3023
    21.3023  21.4763

          k = 0.0000 0.0000 0.4545 (  3575 PWs)   bands (ev):

   -67.0478 -36.6770 -33.1566 -33.1122 -33.1122 -13.2714 -12.7370 -12.7370
    15.6614  16.3611  17.3271  18.6961  18.6961  19.1383  19.3785  20.9531
    20.9531  21.1581

          k = 0.0000 0.0909 0.0909 (  3633 PWs)   bands (ev):

   -67.0527 -36.7037 -33.1252 -33.1200 -33.1187 -12.8097 -12.7991 -12.7602
    12.4562  15.6880  15.7187  18.6337  18.7090  18.9038  21.2548  21.4129
    23.0185  23.0511

          k = 0.0000 0.0909 0.1818 (  3610 PWs)   bands (ev):

   -67.0514 -36.6959 -33.1330 -33.1198 -33.1170 -12.9161 -12.7964 -12.7538
    12.9916  15.9419  16.0224  18.5404  18.6545  19.0428  20.9743  21.5149
    22.3943  22.4247

          k = 0.0000 0.0909 0.2727 (  3609 PWs)   bands (ev):

   -67.0497 -36.6856 -33.1436 -33.1191 -33.1148 -13.0588 -12.7871 -12.7453
    13.8070  16.3049  16.4238  18.4930  18.5953  19.1426  20.5015  21.5066
    21.8219  21.8457

          k = 0.0000 0.0909 0.3636 (  3598 PWs)   bands (ev):

   -67.0482 -36.6763 -33.1532 -33.1184 -33.1128 -13.1879 -12.7785 -12.7376
    14.7803  16.5467  16.8949  18.5067  18.5409  19.1460  19.9680  21.0288
    21.4620  21.7035

          k = 0.0000 0.0909 0.4545 (  3583 PWs)   bands (ev):

   -67.0473 -36.6707 -33.1588 -33.1180 -33.1116 -13.2636 -12.7733 -12.7330
    15.7061  16.3966  17.3318  18.4582  18.5595  19.0732  19.5951  20.7048
    21.3112  21.5108

          k = 0.0000 0.1818 0.1818 (  3609 PWs)   bands (ev):

   -67.0502 -36.6859 -33.1394 -33.1244 -33.1154 -12.9195 -12.8898 -12.7463
    13.4790  16.1186  16.3547  18.3354  18.5518  19.1384  21.0399  21.4642
    21.8052  22.0445

          k = 0.0000 0.1818 0.2727 (  3617 PWs)   bands (ev):

   -67.0485 -36.6728 -33.1494 -33.1286 -33.1133 -13.0451 -12.8890 -12.7365
    14.1998  16.3368  16.8074  18.1951  18.4615  19.0510  20.8276  21.1992
    21.6535  21.8390

          k = 0.0000 0.1818 0.3636 (  3605 PWs)   bands (ev):

   -67.0470 -36.6609 -33.1591 -33.1318 -33.1114 -13.1694 -12.8772 -12.7275
    15.0136  16.4599  17.2542  18.1570  18.4474  18.8015  20.4726  20.8209
    21.8335  21.8693

          k = 0.0000 0.1818 0.4545 (  3593 PWs)   bands (ev):

   -67.0461 -36.6538 -33.1649 -33.1336 -33.1103 -13.2426 -12.8700 -12.7221
    15.7155  16.3333  17.5585  18.2246  18.5112  18.5377  20.2794  20.5500
    21.8982  21.9886

          k = 0.0000 0.2727 0.2727 (  3603 PWs)   bands (ev):

   -67.0469 -36.6561 -33.1579 -33.1400 -33.1114 -13.0410 -13.0064 -12.7249
    14.7233  16.3330  17.3432  17.9521  18.4434  18.7377  20.9483  21.0935
    21.5523  22.0444

          k = 0.0000 0.2727 0.3636 (  3600 PWs)   bands (ev):

   -67.0454 -36.6406 -33.1671 -33.1491 -33.1096 -13.1453 -13.0044 -12.7143
    15.2125  16.2504  17.8264  17.8681  18.3564  18.6712  20.7503  21.0753
    21.7705  22.3704

          k = 0.0000 0.2727 0.4545 (  3588 PWs)   bands (ev):

   -67.0445 -36.6314 -33.1729 -33.1540 -33.1085 -13.2149 -12.9947 -12.7079
    15.5339  16.1189  17.8457  18.0457  18.1592  19.1085  20.4870  21.0134
    22.0612  22.6628

          k = 0.0000 0.3636 0.3636 (  3598 PWs)   bands (ev):

   -67.0439 -36.6218 -33.1750 -33.1644 -33.1078 -13.1313 -13.1113 -12.7021
    15.2814  16.0379  17.6098  17.9512  18.5713  19.1770  20.9265  21.4873
    21.6000  22.8435

          k = 0.0000 0.3636 0.4545 (  3595 PWs)   bands (ev):

   -67.0430 -36.6106 -33.1805 -33.1727 -33.1068 -13.1895 -13.1076 -12.6948
    15.2795  15.9085  17.5515  17.6704  19.0060  19.9059  20.6715  21.5698
    21.8755  23.1989

          k = 0.0000 0.4545 0.4545 (  3592 PWs)   bands (ev):

   -67.0422 -36.5982 -33.1852 -33.1837 -33.1058 -13.1755 -13.1727 -12.6870
    15.1163  15.7867  17.4112  17.4514  19.7702  20.3550  21.1781  21.3907
    21.8737  23.5163

          k = 0.0909 0.0909 0.0909 (  3623 PWs)   bands (ev):

   -67.0522 -36.7005 -33.1246 -33.1246 -33.1174 -12.8111 -12.7968 -12.7968
    12.6387  15.8026  15.8026  18.6083  18.6083  18.9978  21.3180  21.3180
    22.5347  23.3182

          k = 0.0909 0.0909 0.1818 (  3628 PWs)   bands (ev):

   -67.0509 -36.6920 -33.1337 -33.1228 -33.1171 -12.9126 -12.7962 -12.7906
    13.1619  16.0471  16.1033  18.4800  18.5417  19.0982  21.0447  21.4692
    21.9862  22.6388

          k = 0.0909 0.0909 0.2727 (  3616 PWs)   bands (ev):

   -67.0493 -36.6808 -33.1450 -33.1206 -33.1172 -13.0536 -12.7850 -12.7826
    13.9542  16.4275  16.4587  18.4172  18.4519  19.0929  20.6342  21.4323
    21.7747  21.9049

          k = 0.0909 0.0909 0.3636 (  3594 PWs)   bands (ev):

   -67.0478 -36.6706 -33.1550 -33.1184 -33.1175 -13.1813 -12.7752 -12.7744
    14.8905  16.6508  16.8892  18.3400  18.4626  18.9861  20.1806  21.1342
    21.3203  21.9148

          k = 0.0909 0.0909 0.4545 (  3588 PWs)   bands (ev):

   -67.0469 -36.6646 -33.1608 -33.1178 -33.1172 -13.2562 -12.7707 -12.7682
    15.7701  16.4655  17.2944  18.1974  18.6103  18.8757  19.8608  20.8392
    20.9982  22.0525

          k = 0.0909 0.1818 0.1818 (  3625 PWs)   bands (ev):

   -67.0497 -36.6816 -33.1387 -33.1274 -33.1175 -12.9147 -12.8875 -12.7852
    13.6447  16.2436  16.4108  18.2938  18.4202  19.0607  21.1236  21.4299
    21.6662  22.3093

          k = 0.0909 0.1818 0.2727 (  3607 PWs)   bands (ev):

   -67.0481 -36.6679 -33.1493 -33.1297 -33.1175 -13.0401 -12.8856 -12.7747
    14.3553  16.4747  16.8300  18.1472  18.3191  18.8466  20.9374  21.3433
    21.6876  21.9169

          k = 0.0909 0.1818 0.3636 (  3605 PWs)   bands (ev):

   -67.0465 -36.6554 -33.1599 -33.1317 -33.1167 -13.1636 -12.8737 -12.7649
    15.1497  16.6088  17.1965  18.0702  18.3277  18.6277  20.6493  20.9613
    21.5441  22.2475

          k = 0.0909 0.1818 0.4545 (  3592 PWs)   bands (ev):

   -67.0457 -36.6480 -33.1662 -33.1331 -33.1160 -13.2363 -12.8665 -12.7590
    15.8282  16.4610  17.4300  18.0126  18.4289  18.5999  20.4524  20.6393
    21.3206  22.7168

          k = 0.0909 0.2727 0.2727 (  3600 PWs)   bands (ev):

   -67.0464 -36.6510 -33.1572 -33.1410 -33.1164 -13.0352 -13.0041 -12.7628
    14.8877  16.4769  17.3527  17.9110  18.2805  18.4951  21.0851  21.2690
    21.5340  22.2135

          k = 0.0909 0.2727 0.3636 (  3598 PWs)   bands (ev):

   -67.0449 -36.6354 -33.1668 -33.1493 -33.1151 -13.1407 -13.0011 -12.7518
    15.3732  16.3951  17.7497  17.8208  18.2356  18.5026  20.8467  21.1777
    21.6251  22.7017

          k = 0.0909 0.2727 0.4545 (  3599 PWs)   bands (ev):

   -67.0441 -36.6261 -33.1733 -33.1534 -33.1142 -13.2102 -12.9917 -12.7452
    15.6771  16.2622  17.7498  17.8306  18.2325  18.9887  20.5338  21.1323
    21.5616  23.2581

          k = 0.0909 0.3636 0.3636 (  3602 PWs)   bands (ev):

   -67.0435 -36.6169 -33.1742 -33.1645 -33.1134 -13.1270 -13.1090 -12.7398
    15.4422  16.1824  17.5771  17.8513  18.5259  18.9755  20.8671  21.4601
    21.6002  23.2196

          k = 0.0909 0.3636 0.4545 (  3590 PWs)   bands (ev):

   -67.0426 -36.6058 -33.1801 -33.1721 -33.1124 -13.1862 -13.1050 -12.7326
    15.4300  16.0556  17.5176  17.6151  18.9296  19.7052  20.6073  21.4301
    21.7117  23.4686

          k = 0.0909 0.4545 0.4545 (  3586 PWs)   bands (ev):

   -67.0417 -36.5937 -33.1843 -33.1829 -33.1114 -13.1730 -13.1705 -12.7250
    15.2685  15.9350  17.3889  17.4242  19.7149  20.2274  20.8363  20.9795
    21.9585  23.7210

          k = 0.1818 0.1818 0.1818 (  3611 PWs)   bands (ev):

   -67.0484 -36.6699 -33.1368 -33.1368 -33.1217 -12.9092 -12.8811 -12.8811
    14.1108  16.5698  16.5698  18.1836  18.1836  18.7609  21.3288  21.3288
    21.7427  22.5919

          k = 0.1818 0.1818 0.2727 (  3607 PWs)   bands (ev):

   -67.0468 -36.6547 -33.1501 -33.1343 -33.1261 -13.0270 -12.8796 -12.8728
    14.7814  16.8036  16.9269  18.0311  18.0383  18.3936  21.1744  21.4466
    21.8868  22.1047

          k = 0.1818 0.1818 0.3636 (  3600 PWs)   bands (ev):

   -67.0453 -36.6407 -33.1624 -33.1321 -33.1300 -13.1482 -12.8652 -12.8633
    15.4922  16.9721  17.0619  17.8897  18.0920  18.3086  21.0096  21.1787
    21.3396  22.7623

          k = 0.1818 0.1818 0.4545 (  3595 PWs)   bands (ev):

   -67.0444 -36.6324 -33.1697 -33.1323 -33.1307 -13.2196 -12.8606 -12.8534
    16.0541  16.6825  17.2622  17.7700  18.2417  18.5571  20.7268  20.9078
    21.0349  23.1598

          k = 0.1818 0.2727 0.2727 (  3603 PWs)   bands (ev):

   -67.0452 -36.6374 -33.1551 -33.1443 -33.1295 -13.0197 -12.9977 -12.8636
    15.3445  16.8678  17.3718  17.8077  17.9135  18.0090  21.2294  21.4508
    21.7556  22.6691

          k = 0.1818 0.2727 0.3636 (  3593 PWs)   bands (ev):

   -67.0437 -36.6214 -33.1664 -33.1495 -33.1298 -13.1282 -12.9924 -12.8517
    15.8181  16.7715  17.5167  17.6925  18.0201  18.1426  20.9764  21.2631
    21.6292  22.9770

          k = 0.1818 0.2727 0.4545 (  3587 PWs)   bands (ev):

   -67.0428 -36.6118 -33.1744 -33.1517 -33.1294 -13.1976 -12.9836 -12.8444
    16.0610  16.6075  17.4615  17.6466  18.1475  18.7078  20.5949  21.0661
    21.5194  23.2402

          k = 0.1818 0.3636 0.3636 (  3597 PWs)   bands (ev):

   -67.0423 -36.6035 -33.1719 -33.1648 -33.1284 -13.1154 -13.1028 -12.8400
    15.8998  16.5566  17.4970  17.6416  18.3824  18.4702  20.8276  21.1230
    21.9374  23.1628

          k = 0.1818 0.3636 0.4545 (  3586 PWs)   bands (ev):

   -67.0414 -36.5928 -33.1790 -33.1702 -33.1275 -13.1775 -13.0980 -12.8330
    15.8558  16.4364  17.4368  17.5017  18.6687  19.1872  20.5313  20.9318
    22.0279  23.4468

          k = 0.1818 0.4545 0.4545 (  3596 PWs)   bands (ev):

   -67.0405 -36.5815 -33.1820 -33.1810 -33.1263 -13.1662 -13.1645 -12.8262
    15.7038  16.3286  17.3382  17.3655  19.4343  19.6035  20.4183  20.6019
    22.2539  23.7803

          k = 0.2727 0.2727 0.2727 (  3593 PWs)   bands (ev):

   -67.0436 -36.6195 -33.1524 -33.1524 -33.1428 -13.0035 -12.9893 -12.9893
    15.9566  17.3768  17.3768  17.4591  17.6912  17.6912  21.2517  21.2517
    22.2952  22.2952

          k = 0.2727 0.2727 0.3636 (  3591 PWs)   bands (ev):

   -67.0421 -36.6029 -33.1667 -33.1499 -33.1481 -13.1121 -12.9816 -12.9796
    16.3810  17.0603  17.3527  17.6079  17.7250  17.9713  20.9784  21.0059
    22.1154  22.8732

          k = 0.2727 0.2727 0.4545 (  3601 PWs)   bands (ev):

   -67.0413 -36.5931 -33.1761 -33.1504 -33.1484 -13.1812 -12.9770 -12.9685
    16.4513  16.8539  17.3240  17.5689  17.9902  18.5057  20.5305  20.8560
    22.0521  23.2756

          k = 0.2727 0.3636 0.3636 (  3602 PWs)   bands (ev):

   -67.0407 -36.5859 -33.1690 -33.1652 -33.1480 -13.1001 -13.0947 -12.9695
    16.5580  16.9456  17.4139  17.5635  17.8952  18.1424  20.7733  20.7910
    22.4709  23.1024

          k = 0.2727 0.3636 0.4545 (  3602 PWs)   bands (ev):

   -67.0398 -36.5757 -33.1777 -33.1677 -33.1472 -13.1660 -13.0889 -12.9627
    16.4532  16.8554  17.3691  17.4758  18.2417  18.6332  20.4088  20.6779
    22.5443  23.4848

          k = 0.2727 0.4545 0.4545 (  3590 PWs)   bands (ev):

   -67.0390 -36.5654 -33.1789 -33.1783 -33.1459 -13.1574 -13.1566 -12.9569
    16.3490  16.8194  17.3009  17.3428  18.8354  18.8472  20.2041  20.5047
    22.7556  23.8230

          k = 0.3636 0.3636 0.3636 (  3593 PWs)   bands (ev):

   -67.0392 -36.5697 -33.1663 -33.1663 -33.1652 -13.0872 -13.0872 -13.0856
    16.8716  17.3792  17.3792  17.4820  17.8557  17.8557  20.5807  20.5807
    23.1084  23.1084

          k = 0.3636 0.3636 0.4545 (  3605 PWs)   bands (ev):

   -67.0384 -36.5600 -33.1766 -33.1659 -33.1647 -13.1555 -13.0828 -13.0778
    16.8747  17.1091  17.4322  17.6040  17.9180  18.2637  20.2914  20.4887
    23.1232  23.5906

          k = 0.3636 0.4545 0.4545 (  3592 PWs)   bands (ev):

   -67.0375 -36.5506 -33.1760 -33.1759 -33.1638 -13.1493 -13.1492 -13.0752
    16.9995  17.2198  17.3294  17.4873  18.2040  18.2464  20.1523  20.3405
    23.3840  23.8577

          k = 0.4545 0.4545 0.4545 (  3584 PWs)   bands (ev):

   -67.0367 -36.5417 -33.1746 -33.1743 -33.1743 -13.1450 -13.1450 -13.1440
    17.2822  17.4683  17.4683  17.7890  17.7890  17.8590  20.1402  20.1402
    23.8777  23.8777

     the Fermi energy is    19.8878 ev

!    total energy              =    -448.56883301 Ry
     estimated scf accuracy    <          6.9E-09 Ry
     smearing contrib. (-TS)   =      -0.00002758 Ry
     internal energy E=F+TS    =    -448.56880543 Ry

     The total energy is F=E-TS. E is the sum of the following terms:
     one-electron contribution =    -137.32686099 Ry
     hartree contribution      =      86.97338811 Ry
     xc contribution           =     -53.08582240 Ry
     ewald contribution        =    -268.97357322 Ry
     one-center paw contrib.   =     -76.15593693 Ry

     convergence has been achieved in  27 iterations

     negative rho (up, down):  9.615E-04 0.000E+00

     Forces acting on atoms (cartesian axes, Ry/au):

     atom    1 type  1   force =     0.00000000    0.00000000    0.00000000
     atom    2 type  2   force =     0.00000000    0.00000000    0.00000000

     Total force =     0.000000     Total SCF correction =     0.000000


     Computing stress (Cartesian axis) and pressure


     negative rho (up, down):  9.615E-04 0.000E+00
          total   stress  (Ry/bohr**3)                   (kbar)     P=      294.22
   0.00200007   0.00000000   0.00000000          294.22        0.00        0.00
   0.00000000   0.00200007   0.00000000            0.00      294.22        0.00
   0.00000000   0.00000000   0.00200007            0.00        0.00      294.22


     Writing all to output data dir ./TiFe.save/ :
     XML data file, charge density, pseudopotentials, collected wavefunctions

     init_run     :      1.46s CPU      1.51s WALL (       1 calls)
     electrons    :     26.92s CPU     28.58s WALL (       1 calls)
     forces       :      0.21s CPU      0.24s WALL (       1 calls)
     stress       :      1.26s CPU      1.31s WALL (       1 calls)

     Called by init_run:
     wfcinit      :      0.30s CPU      0.32s WALL (       1 calls)
     potinit      :      0.37s CPU      0.37s WALL (       1 calls)
     hinit0       :      0.64s CPU      0.65s WALL (       1 calls)

     Called by electrons:
     c_bands      :     16.80s CPU     17.20s WALL (      27 calls)
     sum_band     :      5.29s CPU      5.85s WALL (      27 calls)
     v_of_rho     :      0.50s CPU      0.55s WALL (      28 calls)
     newd         :      2.86s CPU      3.34s WALL (      28 calls)
     PAW_pot      :      1.54s CPU      1.71s WALL (      28 calls)
     mix_rho      :      0.05s CPU      0.06s WALL (      27 calls)

     Called by c_bands:
     init_us_2    :      0.42s CPU      0.44s WALL (    3192 calls)
     cegterg      :     16.03s CPU     16.38s WALL (    1512 calls)

     Called by *egterg:
     cdiaghg      :      2.03s CPU      2.07s WALL (    5825 calls)
     h_psi        :     12.01s CPU     12.29s WALL (    5881 calls)
     s_psi        :      0.32s CPU      0.33s WALL (    5881 calls)
     g_psi        :      0.07s CPU      0.07s WALL (    4313 calls)

     Called by h_psi:
     h_psi:calbec :      0.66s CPU      0.67s WALL (    5881 calls)
     vloc_psi     :     10.94s CPU     11.20s WALL (    5881 calls)
     add_vuspsi   :      0.34s CPU      0.35s WALL (    5881 calls)

     General routines
     calbec       :      0.92s CPU      0.94s WALL (    8345 calls)
     fft          :      0.77s CPU      0.85s WALL (     387 calls)
     ffts         :      0.28s CPU      0.29s WALL (      55 calls)
     fftw         :     10.52s CPU     10.76s WALL (  166276 calls)
     interpolate  :      0.30s CPU      0.31s WALL (      28 calls)

     Parallel routines

     PWSCF        :     30.13s CPU     32.06s WALL


   This run was terminated on:   0:36:35  25Oct2025            

=------------------------------------------------------------------------------=
   JOB DONE.
=------------------------------------------------------------------------------=
