
     Program PWSCF v.7.4 starts on 25Oct2025 at  0:49:44 

     This program is part of the open-source Quantum ESPRESSO suite
     for quantum simulation of materials; please cite
         "P. Giannozzi et al., J. Phys.:Condens. Matter 21 395502 (2009);
         "P. Giannozzi et al., J. Phys.:Condens. Matter 29 465901 (2017);
         "P. Giannozzi et al., J. Chem. Phys. 152 154105 (2020);
          URL http://www.quantum-espresso.org", 
     in publications or presentations arising from this work. More details at
     http://www.quantum-espresso.org/quote

     Parallel version (MPI & OpenMP), running on       8 processor cores
     Number of MPI processes:                 8
     Threads/MPI process:                     1

     MPI processes distributed on     1 nodes
     210211 MiB available memory on the printing compute node when the environment starts

     Reading input from TiFe_22.in

     Current dimensions of program PWSCF are:
     Max number of different atomic species (ntypx) = 10
     Max number of k-points (npk) =  40000
     Max angular momentum in pseudopotentials (lmaxx) =  4
     file Fe.pbe-spn-kjpaw_psl.0.2.1.UPF: wavefunction(s)  3D renormalized

     IMPORTANT: XC functional enforced from input :
     Exchange-correlation= PBE
                           (   1   4   3   4   0   0   0)
     Any further DFT definition will be discarded
     Please, verify this is what you really want

     Message from routine setup:
     using ibrav=0 with symmetry is DISCOURAGED, use correct ibrav instead

     R & G space division:  proc/nbgrp/npool/nimage =       8
     Subspace diagonalization in iterative solution of the eigenvalue problem:
     a serial algorithm will be used


     Parallelization info
     --------------------
     sticks:   dense  smooth     PW     G-vecs:    dense   smooth      PW
     Min         568     163     46                28896     4437     686
     Max         569     164     47                28899     4442     689
     Sum        4545    1305    373               231181    35513    5497

     Using Slab Decomposition



     bravais-lattice index     =            0
     lattice parameter (alat)  =       5.7423  a.u.
     unit-cell volume          =     189.3440 (a.u.)^3
     number of atoms/cell      =            2
     number of atomic types    =            2
     number of electrons       =        28.00
     number of Kohn-Sham states=           18
     kinetic-energy cutoff     =     124.0000  Ry
     charge density cutoff     =    1736.0000  Ry
     scf convergence threshold =      1.0E-08
     mixing beta               =       0.7000
     number of iterations used =            8  plain     mixing
     Exchange-correlation= PBE
                           (   1   4   3   4   0   0   0)

     celldm(1)=   5.742273  celldm(2)=   0.000000  celldm(3)=   0.000000
     celldm(4)=   0.000000  celldm(5)=   0.000000  celldm(6)=   0.000000

     crystal axes: (cart. coord. in units of alat)
               a(1) = (   1.000000   0.000000   0.000000 )  
               a(2) = (   0.000000   1.000000   0.000000 )  
               a(3) = (   0.000000   0.000000   1.000000 )  

     reciprocal axes: (cart. coord. in units 2 pi/alat)
               b(1) = (  1.000000  0.000000  0.000000 )  
               b(2) = (  0.000000  1.000000  0.000000 )  
               b(3) = (  0.000000  0.000000  1.000000 )  


     PseudoPot. # 1 for Fe read from file:
     ../pseudos/Fe.pbe-spn-kjpaw_psl.0.2.1.UPF
     MD5 check sum: e86618425769142926afa95317d90200
     Pseudo is Projector augmented-wave + core cor, Zval = 16.0
     Generated using "atomic" code by A. Dal Corso  v.5.0.99 svn rev. 10869
     Shape of augmentation charge: PSQ
     Using radial grid of 1191 points,  6 beta functions with: 
                l(1) =   0
                l(2) =   0
                l(3) =   1
                l(4) =   1
                l(5) =   2
                l(6) =   2
     Q(r) pseudized with 0 coefficients 


     PseudoPot. # 2 for Ti read from file:
     ../pseudos/ti_pbe_v1.4.uspp.F.UPF
     MD5 check sum: 88a00a6731bd790ddea75d31a80cb452
     Pseudo is Ultrasoft + core correction, Zval = 12.0
     Generated by new atomic code, or converted to UPF format
     Using radial grid of  851 points,  6 beta functions with: 
                l(1) =   0
                l(2) =   0
                l(3) =   1
                l(4) =   1
                l(5) =   2
                l(6) =   2
     Q(r) pseudized with  6 coefficients,  rinner =    1.000   1.000   1.000
                                                       1.000   1.000

     atomic species   valence    mass     pseudopotential
     Fe               16.00    55.84500     Fe( 1.00)
     Ti               12.00    47.86700     Ti( 1.00)

     48 Sym. Ops., with inversion, found



   Cartesian axes

     site n.     atom                  positions (alat units)
         1        Fe     tau(   1) = (   0.5000000   0.5000000   0.5000000  )
         2        Ti     tau(   2) = (   0.0000000   0.0000000   0.0000000  )

     number of k points=    56  Marzari-Vanderbilt smearing, width (Ry)=  0.0050
                       cart. coord. in units 2pi/alat
        k(    1) = (   0.0000000   0.0000000   0.0000000), wk =   0.0015026
        k(    2) = (   0.0000000   0.0000000   0.0909091), wk =   0.0090158
        k(    3) = (   0.0000000   0.0000000   0.1818182), wk =   0.0090158
        k(    4) = (   0.0000000   0.0000000   0.2727273), wk =   0.0090158
        k(    5) = (   0.0000000   0.0000000   0.3636364), wk =   0.0090158
        k(    6) = (   0.0000000   0.0000000   0.4545455), wk =   0.0090158
        k(    7) = (   0.0000000   0.0909091   0.0909091), wk =   0.0180316
        k(    8) = (   0.0000000   0.0909091   0.1818182), wk =   0.0360631
        k(    9) = (   0.0000000   0.0909091   0.2727273), wk =   0.0360631
        k(   10) = (   0.0000000   0.0909091   0.3636364), wk =   0.0360631
        k(   11) = (   0.0000000   0.0909091   0.4545455), wk =   0.0360631
        k(   12) = (   0.0000000   0.1818182   0.1818182), wk =   0.0180316
        k(   13) = (   0.0000000   0.1818182   0.2727273), wk =   0.0360631
        k(   14) = (   0.0000000   0.1818182   0.3636364), wk =   0.0360631
        k(   15) = (   0.0000000   0.1818182   0.4545455), wk =   0.0360631
        k(   16) = (   0.0000000   0.2727273   0.2727273), wk =   0.0180316
        k(   17) = (   0.0000000   0.2727273   0.3636364), wk =   0.0360631
        k(   18) = (   0.0000000   0.2727273   0.4545455), wk =   0.0360631
        k(   19) = (   0.0000000   0.3636364   0.3636364), wk =   0.0180316
        k(   20) = (   0.0000000   0.3636364   0.4545455), wk =   0.0360631
        k(   21) = (   0.0000000   0.4545455   0.4545455), wk =   0.0180316
        k(   22) = (   0.0909091   0.0909091   0.0909091), wk =   0.0120210
        k(   23) = (   0.0909091   0.0909091   0.1818182), wk =   0.0360631
        k(   24) = (   0.0909091   0.0909091   0.2727273), wk =   0.0360631
        k(   25) = (   0.0909091   0.0909091   0.3636364), wk =   0.0360631
        k(   26) = (   0.0909091   0.0909091   0.4545455), wk =   0.0360631
        k(   27) = (   0.0909091   0.1818182   0.1818182), wk =   0.0360631
        k(   28) = (   0.0909091   0.1818182   0.2727273), wk =   0.0721262
        k(   29) = (   0.0909091   0.1818182   0.3636364), wk =   0.0721262
        k(   30) = (   0.0909091   0.1818182   0.4545455), wk =   0.0721262
        k(   31) = (   0.0909091   0.2727273   0.2727273), wk =   0.0360631
        k(   32) = (   0.0909091   0.2727273   0.3636364), wk =   0.0721262
        k(   33) = (   0.0909091   0.2727273   0.4545455), wk =   0.0721262
        k(   34) = (   0.0909091   0.3636364   0.3636364), wk =   0.0360631
        k(   35) = (   0.0909091   0.3636364   0.4545455), wk =   0.0721262
        k(   36) = (   0.0909091   0.4545455   0.4545455), wk =   0.0360631
        k(   37) = (   0.1818182   0.1818182   0.1818182), wk =   0.0120210
        k(   38) = (   0.1818182   0.1818182   0.2727273), wk =   0.0360631
        k(   39) = (   0.1818182   0.1818182   0.3636364), wk =   0.0360631
        k(   40) = (   0.1818182   0.1818182   0.4545455), wk =   0.0360631
        k(   41) = (   0.1818182   0.2727273   0.2727273), wk =   0.0360631
        k(   42) = (   0.1818182   0.2727273   0.3636364), wk =   0.0721262
        k(   43) = (   0.1818182   0.2727273   0.4545455), wk =   0.0721262
        k(   44) = (   0.1818182   0.3636364   0.3636364), wk =   0.0360631
        k(   45) = (   0.1818182   0.3636364   0.4545455), wk =   0.0721262
        k(   46) = (   0.1818182   0.4545455   0.4545455), wk =   0.0360631
        k(   47) = (   0.2727273   0.2727273   0.2727273), wk =   0.0120210
        k(   48) = (   0.2727273   0.2727273   0.3636364), wk =   0.0360631
        k(   49) = (   0.2727273   0.2727273   0.4545455), wk =   0.0360631
        k(   50) = (   0.2727273   0.3636364   0.3636364), wk =   0.0360631
        k(   51) = (   0.2727273   0.3636364   0.4545455), wk =   0.0721262
        k(   52) = (   0.2727273   0.4545455   0.4545455), wk =   0.0360631
        k(   53) = (   0.3636364   0.3636364   0.3636364), wk =   0.0120210
        k(   54) = (   0.3636364   0.3636364   0.4545455), wk =   0.0360631
        k(   55) = (   0.3636364   0.4545455   0.4545455), wk =   0.0360631
        k(   56) = (   0.4545455   0.4545455   0.4545455), wk =   0.0120210

     Dense  grid:   231181 G-vectors     FFT dimensions: (  80,  80,  80)

     Smooth grid:    35513 G-vectors     FFT dimensions: (  45,  45,  45)

     Estimated max dynamical RAM per process >     121.35 MB

     Estimated total dynamical RAM >     970.77 MB

     Check: negative core charge=   -0.000001

     Initial potential from superposition of free atoms

     starting charge      26.9995, renormalised to      28.0000

     negative rho (up, down):  1.335E-03 0.000E+00
     Starting wfcs are   23 randomized atomic wfcs
     Checking if some PAW data can be deallocated... 

     total cpu time spent up to now is        1.7 secs

     per-process dynamical memory:   137.0 Mb

     Self-consistent Calculation

     iteration #  1     ecut=   124.00 Ry     beta= 0.70
     Davidson diagonalization with overlap
     ethr =  1.00E-02,  avg # of iterations =  2.2

     negative rho (up, down):  9.218E-05 0.000E+00

     total cpu time spent up to now is        3.2 secs

     total energy              =    -432.98463130 Ry
     estimated scf accuracy    <      19.76117169 Ry

     iteration #  2     ecut=   124.00 Ry     beta= 0.70
     Davidson diagonalization with overlap
     ethr =  1.00E-02,  avg # of iterations =  6.1

     negative rho (up, down):  1.182E-05 0.000E+00

     total cpu time spent up to now is        5.6 secs

     total energy              =    -447.86532693 Ry
     estimated scf accuracy    <      75.97636962 Ry

     iteration #  3     ecut=   124.00 Ry     beta= 0.70
     Davidson diagonalization with overlap
     ethr =  1.00E-02,  avg # of iterations =  3.2

     negative rho (up, down):  1.403E-04 0.000E+00

     total cpu time spent up to now is        7.4 secs

     total energy              =    -449.04181178 Ry
     estimated scf accuracy    <      18.50089426 Ry

     iteration #  4     ecut=   124.00 Ry     beta= 0.70
     Davidson diagonalization with overlap
     ethr =  1.00E-02,  avg # of iterations =  2.2

     negative rho (up, down):  2.583E-04 0.000E+00

     total cpu time spent up to now is        8.8 secs

     total energy              =    -449.15316455 Ry
     estimated scf accuracy    <       6.92802967 Ry

     iteration #  5     ecut=   124.00 Ry     beta= 0.70
     Davidson diagonalization with overlap
     ethr =  1.00E-02,  avg # of iterations =  1.0

     negative rho (up, down):  4.749E-04 0.000E+00

     total cpu time spent up to now is       10.1 secs

     total energy              =    -448.89166008 Ry
     estimated scf accuracy    <       4.97135807 Ry

     iteration #  6     ecut=   124.00 Ry     beta= 0.70
     Davidson diagonalization with overlap
     ethr =  1.00E-02,  avg # of iterations =  1.1

     negative rho (up, down):  1.234E-03 0.000E+00

     total cpu time spent up to now is       11.3 secs

     total energy              =    -447.68377718 Ry
     estimated scf accuracy    <       4.07307666 Ry

     iteration #  7     ecut=   124.00 Ry     beta= 0.70
     Davidson diagonalization with overlap
     ethr =  1.00E-02,  avg # of iterations =  4.1

     negative rho (up, down):  1.056E-03 0.000E+00

     total cpu time spent up to now is       12.9 secs

     total energy              =    -448.85612964 Ry
     estimated scf accuracy    <      15.66993923 Ry

     iteration #  8     ecut=   124.00 Ry     beta= 0.70
     Davidson diagonalization with overlap
     ethr =  1.00E-02,  avg # of iterations =  1.0

     negative rho (up, down):  8.847E-04 0.000E+00

     total cpu time spent up to now is       14.1 secs

     total energy              =    -448.42467365 Ry
     estimated scf accuracy    <       9.16540483 Ry

     iteration #  9     ecut=   124.00 Ry     beta= 0.70
     Davidson diagonalization with overlap
     ethr =  1.00E-02,  avg # of iterations =  1.6

     negative rho (up, down):  6.980E-04 0.000E+00

     total cpu time spent up to now is       15.4 secs

     total energy              =    -448.45619778 Ry
     estimated scf accuracy    <       1.03087874 Ry

     iteration # 10     ecut=   124.00 Ry     beta= 0.70
     Davidson diagonalization with overlap
     ethr =  3.68E-03,  avg # of iterations =  2.5

     negative rho (up, down):  9.648E-04 0.000E+00

     total cpu time spent up to now is       16.7 secs

     total energy              =    -448.46882739 Ry
     estimated scf accuracy    <       0.43855102 Ry

     iteration # 11     ecut=   124.00 Ry     beta= 0.70
     Davidson diagonalization with overlap
     ethr =  1.57E-03,  avg # of iterations =  3.4

     negative rho (up, down):  7.326E-04 0.000E+00

     total cpu time spent up to now is       18.1 secs

     total energy              =    -448.44723367 Ry
     estimated scf accuracy    <       2.70872814 Ry

     iteration # 12     ecut=   124.00 Ry     beta= 0.70
     Davidson diagonalization with overlap
     ethr =  1.57E-03,  avg # of iterations =  2.8

     negative rho (up, down):  8.793E-04 0.000E+00

     total cpu time spent up to now is       19.5 secs

     total energy              =    -448.57905415 Ry
     estimated scf accuracy    <       0.04003134 Ry

     iteration # 13     ecut=   124.00 Ry     beta= 0.70
     Davidson diagonalization with overlap
     ethr =  1.43E-04,  avg # of iterations =  3.2

     negative rho (up, down):  6.117E-04 0.000E+00

     total cpu time spent up to now is       20.9 secs

     total energy              =    -448.62585233 Ry
     estimated scf accuracy    <       0.15889695 Ry

     iteration # 14     ecut=   124.00 Ry     beta= 0.70
     Davidson diagonalization with overlap
     ethr =  1.43E-04,  avg # of iterations =  3.9

     negative rho (up, down):  2.716E-04 0.000E+00

     total cpu time spent up to now is       22.5 secs

     total energy              =    -448.74597045 Ry
     estimated scf accuracy    <       0.70741373 Ry

     iteration # 15     ecut=   124.00 Ry     beta= 0.70
     Davidson diagonalization with overlap
     ethr =  1.43E-04,  avg # of iterations =  4.7

     negative rho (up, down):  5.788E-04 0.000E+00

     total cpu time spent up to now is       24.3 secs

     total energy              =    -448.60402099 Ry
     estimated scf accuracy    <       1.25585962 Ry

     iteration # 16     ecut=   124.00 Ry     beta= 0.70
     Davidson diagonalization with overlap
     ethr =  1.43E-04,  avg # of iterations =  4.1

     negative rho (up, down):  1.436E-03 0.000E+00

     total cpu time spent up to now is       26.0 secs

     total energy              =    -448.48550269 Ry
     estimated scf accuracy    <       0.37957971 Ry

     iteration # 17     ecut=   124.00 Ry     beta= 0.70
     Davidson diagonalization with overlap
     ethr =  1.43E-04,  avg # of iterations =  6.0

     negative rho (up, down):  1.124E-03 0.000E+00

     total cpu time spent up to now is       28.1 secs

     total energy              =    -448.56479531 Ry
     estimated scf accuracy    <       1.32975345 Ry

     iteration # 18     ecut=   124.00 Ry     beta= 0.70
     Davidson diagonalization with overlap
     ethr =  1.43E-04,  avg # of iterations =  4.0

     negative rho (up, down):  1.290E-03 0.000E+00

     total cpu time spent up to now is       29.7 secs

     total energy              =    -448.61261224 Ry
     estimated scf accuracy    <       0.22794050 Ry

     iteration # 19     ecut=   124.00 Ry     beta= 0.70
     Davidson diagonalization with overlap
     ethr =  1.43E-04,  avg # of iterations =  2.9

     negative rho (up, down):  1.280E-03 0.000E+00

     total cpu time spent up to now is       31.1 secs

     total energy              =    -448.62003313 Ry
     estimated scf accuracy    <       0.74719797 Ry

     iteration # 20     ecut=   124.00 Ry     beta= 0.70
     Davidson diagonalization with overlap
     ethr =  1.43E-04,  avg # of iterations =  1.0

     negative rho (up, down):  1.435E-03 0.000E+00

     total cpu time spent up to now is       32.3 secs

     total energy              =    -448.66204252 Ry
     estimated scf accuracy    <       0.76000013 Ry

     iteration # 21     ecut=   124.00 Ry     beta= 0.70
     Davidson diagonalization with overlap
     ethr =  1.43E-04,  avg # of iterations =  3.2

     negative rho (up, down):  1.462E-03 0.000E+00

     total cpu time spent up to now is       33.7 secs

     total energy              =    -448.69383481 Ry
     estimated scf accuracy    <       1.98612081 Ry

     iteration # 22     ecut=   124.00 Ry     beta= 0.70
     Davidson diagonalization with overlap
     ethr =  1.43E-04,  avg # of iterations =  1.1

     negative rho (up, down):  1.646E-03 0.000E+00

     total cpu time spent up to now is       34.9 secs

     total energy              =    -448.73707620 Ry
     estimated scf accuracy    <       2.61899953 Ry

     iteration # 23     ecut=   124.00 Ry     beta= 0.70
     Davidson diagonalization with overlap
     ethr =  1.43E-04,  avg # of iterations =  3.3

     negative rho (up, down):  1.167E-03 0.000E+00

     total cpu time spent up to now is       36.3 secs

     total energy              =    -448.49482968 Ry
     estimated scf accuracy    <       3.87926373 Ry

     iteration # 24     ecut=   124.00 Ry     beta= 0.70
     Davidson diagonalization with overlap
     ethr =  1.43E-04,  avg # of iterations =  4.9

     negative rho (up, down):  1.025E-03 0.000E+00

     total cpu time spent up to now is       38.1 secs

     total energy              =    -448.57466010 Ry
     estimated scf accuracy    <       0.20342523 Ry

     iteration # 25     ecut=   124.00 Ry     beta= 0.70
     Davidson diagonalization with overlap
     ethr =  1.43E-04,  avg # of iterations =  2.2

     negative rho (up, down):  1.012E-03 0.000E+00

     total cpu time spent up to now is       39.5 secs

     total energy              =    -448.57875338 Ry
     estimated scf accuracy    <       0.03613123 Ry

     iteration # 26     ecut=   124.00 Ry     beta= 0.70
     Davidson diagonalization with overlap
     ethr =  1.29E-04,  avg # of iterations =  1.3

     negative rho (up, down):  9.509E-04 0.000E+00

     total cpu time spent up to now is       40.7 secs

     total energy              =    -448.57759792 Ry
     estimated scf accuracy    <       0.01284718 Ry

     iteration # 27     ecut=   124.00 Ry     beta= 0.70
     Davidson diagonalization with overlap
     ethr =  4.59E-05,  avg # of iterations =  3.5

     negative rho (up, down):  1.018E-03 0.000E+00

     total cpu time spent up to now is       42.2 secs

     total energy              =    -448.57945816 Ry
     estimated scf accuracy    <       0.00012868 Ry

     iteration # 28     ecut=   124.00 Ry     beta= 0.70
     Davidson diagonalization with overlap
     ethr =  4.60E-07,  avg # of iterations =  5.8

     negative rho (up, down):  9.273E-04 0.000E+00

     total cpu time spent up to now is       44.2 secs

     total energy              =    -448.57837170 Ry
     estimated scf accuracy    <       0.00901618 Ry

     iteration # 29     ecut=   124.00 Ry     beta= 0.70
     Davidson diagonalization with overlap
     ethr =  4.60E-07,  avg # of iterations =  6.0

     negative rho (up, down):  9.406E-04 0.000E+00

     total cpu time spent up to now is       46.2 secs

     total energy              =    -448.57923846 Ry
     estimated scf accuracy    <       0.00034711 Ry

     iteration # 30     ecut=   124.00 Ry     beta= 0.70
     Davidson diagonalization with overlap
     ethr =  4.60E-07,  avg # of iterations =  3.2

     negative rho (up, down):  9.577E-04 0.000E+00

     total cpu time spent up to now is       47.6 secs

     total energy              =    -448.57928735 Ry
     estimated scf accuracy    <       0.00001630 Ry

     iteration # 31     ecut=   124.00 Ry     beta= 0.70
     Davidson diagonalization with overlap
     ethr =  5.82E-08,  avg # of iterations =  5.5

     negative rho (up, down):  9.428E-04 0.000E+00

     total cpu time spent up to now is       49.5 secs

     total energy              =    -448.57928270 Ry
     estimated scf accuracy    <       0.00120853 Ry

     iteration # 32     ecut=   124.00 Ry     beta= 0.70
     Davidson diagonalization with overlap
     ethr =  5.82E-08,  avg # of iterations =  4.2

     negative rho (up, down):  9.307E-04 0.000E+00

     total cpu time spent up to now is       51.1 secs

     total energy              =    -448.57923054 Ry
     estimated scf accuracy    <       0.00038917 Ry

     iteration # 33     ecut=   124.00 Ry     beta= 0.70
     Davidson diagonalization with overlap
     ethr =  5.82E-08,  avg # of iterations =  5.0

     negative rho (up, down):  9.332E-04 0.000E+00

     total cpu time spent up to now is       52.9 secs

     total energy              =    -448.57926766 Ry
     estimated scf accuracy    <       0.00002560 Ry

     iteration # 34     ecut=   124.00 Ry     beta= 0.70
     Davidson diagonalization with overlap
     ethr =  5.82E-08,  avg # of iterations =  2.0

     negative rho (up, down):  9.339E-04 0.000E+00

     total cpu time spent up to now is       54.2 secs

     total energy              =    -448.57926955 Ry
     estimated scf accuracy    <       0.00000073 Ry

     iteration # 35     ecut=   124.00 Ry     beta= 0.70
     Davidson diagonalization with overlap
     ethr =  2.62E-09,  avg # of iterations =  4.6

     negative rho (up, down):  9.337E-04 0.000E+00

     total cpu time spent up to now is       55.9 secs

     total energy              =    -448.57927007 Ry
     estimated scf accuracy    <       0.00000109 Ry

     iteration # 36     ecut=   124.00 Ry     beta= 0.70
     Davidson diagonalization with overlap
     ethr =  2.62E-09,  avg # of iterations =  1.0

     negative rho (up, down):  9.336E-04 0.000E+00

     total cpu time spent up to now is       57.2 secs

     total energy              =    -448.57927002 Ry
     estimated scf accuracy    <       0.00000062 Ry

     iteration # 37     ecut=   124.00 Ry     beta= 0.70
     Davidson diagonalization with overlap
     ethr =  2.23E-09,  avg # of iterations =  1.0

     negative rho (up, down):  9.331E-04 0.000E+00

     total cpu time spent up to now is       58.4 secs

     total energy              =    -448.57926997 Ry
     estimated scf accuracy    <       0.00000026 Ry

     iteration # 38     ecut=   124.00 Ry     beta= 0.70
     Davidson diagonalization with overlap
     ethr =  9.17E-10,  avg # of iterations =  3.1

     negative rho (up, down):  9.330E-04 0.000E+00

     total cpu time spent up to now is       59.8 secs

     total energy              =    -448.57927002 Ry
     estimated scf accuracy    <       0.00000002 Ry

     iteration # 39     ecut=   124.00 Ry     beta= 0.70
     Davidson diagonalization with overlap
     ethr =  7.93E-11,  avg # of iterations =  4.1

     negative rho (up, down):  9.332E-04 0.000E+00

     total cpu time spent up to now is       61.4 secs

     total energy              =    -448.57927000 Ry
     estimated scf accuracy    <       0.00000015 Ry

     iteration # 40     ecut=   124.00 Ry     beta= 0.70
     Davidson diagonalization with overlap
     ethr =  7.93E-11,  avg # of iterations =  2.9

     negative rho (up, down):  9.332E-04 0.000E+00

     total cpu time spent up to now is       62.9 secs

     total energy              =    -448.57927001 Ry
     estimated scf accuracy    <       0.00000002 Ry

     iteration # 41     ecut=   124.00 Ry     beta= 0.70
     Davidson diagonalization with overlap
     ethr =  6.32E-11,  avg # of iterations =  2.8

     negative rho (up, down):  9.332E-04 0.000E+00

     total cpu time spent up to now is       64.2 secs

     End of self-consistent calculation

          k = 0.0000 0.0000 0.0000 (  4385 PWs)   bands (ev):

   -71.1067 -41.3147 -37.1648 -37.1648 -37.1648 -17.4320 -17.4320 -17.4320
     8.5238  12.4036  12.4036  14.8137  14.8137  14.8137  16.8849  16.8849
    18.5709  18.5709

          k = 0.0000 0.0000 0.0909 (  4417 PWs)   bands (ev):

   -71.1066 -41.3132 -37.1667 -37.1645 -37.1645 -17.4524 -17.4307 -17.4307
     8.6816  12.4755  12.4778  14.8022  14.8022  14.8469  16.7962  16.9173
    18.3563  18.3563

          k = 0.0000 0.0000 0.1818 (  4412 PWs)   bands (ev):

   -71.1061 -41.3090 -37.1717 -37.1639 -37.1639 -17.5066 -17.4272 -17.4272
     9.1419  12.6578  12.6948  14.7752  14.7752  14.9396  16.5393  16.9871
    17.8534  17.8534

          k = 0.0000 0.0000 0.2727 (  4420 PWs)   bands (ev):

   -71.1056 -41.3035 -37.1783 -37.1631 -37.1631 -17.5770 -17.4225 -17.4225
     9.8635  12.8482  13.0349  14.7504  14.7504  15.0711  16.1440  16.9945
    17.2944  17.2944

          k = 0.0000 0.0000 0.3636 (  4400 PWs)   bands (ev):

   -71.1050 -41.2985 -37.1843 -37.1623 -37.1623 -17.6411 -17.4183 -17.4183
    10.7694  12.8709  13.4532  14.7416  14.7416  15.2045  15.6722  16.7897
    16.8369  16.8369

          k = 0.0000 0.0000 0.4545 (  4416 PWs)   bands (ev):

   -71.1047 -41.2955 -37.1879 -37.1618 -37.1618 -17.6789 -17.4157 -17.4157
    11.7137  12.5247  13.8239  14.7455  14.7455  15.2685  15.2911  16.4915
    16.5789  16.5789

          k = 0.0000 0.0909 0.0909 (  4429 PWs)   bands (ev):

   -71.1064 -41.3116 -37.1670 -37.1659 -37.1643 -17.4527 -17.4490 -17.4294
     8.8368  12.5445  12.5521  14.7324  14.7838  14.9282  16.7829  16.8925
    18.1209  18.1402

          k = 0.0000 0.0909 0.1818 (  4414 PWs)   bands (ev):

   -71.1060 -41.3072 -37.1718 -37.1658 -37.1637 -17.5049 -17.4468 -17.4257
     9.2885  12.7236  12.7623  14.6630  14.7382  15.0285  16.5851  16.9533
    17.6475  17.6815

          k = 0.0000 0.0909 0.2727 (  4406 PWs)   bands (ev):

   -71.1054 -41.3016 -37.1785 -37.1652 -37.1628 -17.5746 -17.4416 -17.4209
     9.9941  12.9116  13.0827  14.6235  14.6859  15.1018  16.2489  16.9098
    17.2087  17.2487

          k = 0.0000 0.0909 0.3636 (  4408 PWs)   bands (ev):

   -71.1049 -41.2963 -37.1846 -37.1647 -37.1621 -17.6382 -17.4369 -17.4165
    10.8741  12.9244  13.4723  14.6241  14.6392  15.1100  15.8608  16.5486
    16.9575  17.0436

          k = 0.0000 0.0909 0.4545 (  4405 PWs)   bands (ev):

   -71.1046 -41.2932 -37.1883 -37.1643 -37.1616 -17.6757 -17.4341 -17.4139
    11.7812  12.5784  13.8140  14.5816  14.6504  15.0686  15.5767  16.2800
    16.8382  16.8612

          k = 0.0000 0.1818 0.1818 (  4409 PWs)   bands (ev):

   -71.1055 -41.3025 -37.1731 -37.1699 -37.1631 -17.5048 -17.4944 -17.4217
     9.7124  12.8528  12.9890  14.5140  14.6516  15.0918  16.6265  16.9198
    17.1936  17.4035

          k = 0.0000 0.1818 0.2727 (  4416 PWs)   bands (ev):

   -71.1050 -41.2963 -37.1791 -37.1709 -37.1623 -17.5684 -17.4925 -17.4165
    10.3638  12.9748  13.3092  14.4090  14.5653  15.0266  16.4834  16.6964
    17.0569  17.2473

          k = 0.0000 0.1818 0.3636 (  4416 PWs)   bands (ev):

   -71.1044 -41.2906 -37.1855 -37.1710 -37.1615 -17.6304 -17.4866 -17.4118
    11.1514  12.9435  13.6487  14.3757  14.5298  14.8492  16.2241  16.3901
    17.1462  17.2597

          k = 0.0000 0.1818 0.4545 (  4411 PWs)   bands (ev):

   -71.1041 -41.2872 -37.1893 -37.1710 -37.1611 -17.6670 -17.4831 -17.4089
    11.9179  12.6375  13.9055  14.4147  14.5431  14.6670  16.0692  16.1724
    17.1442  17.3391

          k = 0.0000 0.2727 0.2727 (  4418 PWs)   bands (ev):

   -71.1044 -41.2894 -37.1810 -37.1772 -37.1615 -17.5654 -17.5533 -17.4108
    10.9034  12.9443  13.6867  14.2296  14.5066  14.7970  16.4972  16.6858
    16.9598  17.3940

          k = 0.0000 0.2727 0.3636 (  4413 PWs)   bands (ev):

   -71.1039 -41.2830 -37.1866 -37.1792 -37.1608 -17.6202 -17.5511 -17.4055
    11.4947  12.8017  14.0669  14.1338  14.5192  14.6132  16.3287  16.6619
    17.0973  17.6288

          k = 0.0000 0.2727 0.4545 (  4411 PWs)   bands (ev):

   -71.1036 -41.2792 -37.1906 -37.1797 -37.1603 -17.6557 -17.5467 -17.4024
    11.9810  12.5700  14.1423  14.2756  14.2953  14.8947  16.1006  16.6295
    17.2579  17.8397

          k = 0.0000 0.3636 0.3636 (  4414 PWs)   bands (ev):

   -71.1034 -41.2761 -37.1883 -37.1861 -37.1601 -17.6139 -17.6069 -17.3998
    11.7757  12.6031  13.9722  14.2200  14.5877  14.9264  16.4246  16.9408
    16.9757  17.9763

          k = 0.0000 0.3636 0.4545 (  4418 PWs)   bands (ev):

   -71.1030 -41.2719 -37.1918 -37.1877 -37.1597 -17.6452 -17.6047 -17.3964
    11.9336  12.4526  13.9263  14.0138  14.9006  15.4921  16.2018  17.0077
    17.1252  18.2362

          k = 0.0000 0.4545 0.4545 (  4420 PWs)   bands (ev):

   -71.1027 -41.2676 -37.1927 -37.1923 -37.1593 -17.6394 -17.6385 -17.3928
    11.8727  12.3776  13.8216  13.8508  15.5307  15.9187  16.5087  16.6687
    17.2487  18.4694

          k = 0.0909 0.0909 0.0909 (  4424 PWs)   bands (ev):

   -71.1062 -41.3099 -37.1668 -37.1668 -37.1653 -17.4527 -17.4477 -17.4477
     8.9896  12.6189  12.6189  14.7125  14.7125  14.9924  16.8261  16.8261
    17.7600  18.3381

          k = 0.0909 0.0909 0.1818 (  4417 PWs)   bands (ev):

   -71.1058 -41.3054 -37.1718 -37.1661 -37.1652 -17.5031 -17.4463 -17.4441
     9.4338  12.8065  12.8128  14.6172  14.6597  15.0606  16.6341  16.9216
    17.3491  17.8320

          k = 0.0909 0.0909 0.2727 (  4427 PWs)   bands (ev):

   -71.1052 -41.2996 -37.1786 -37.1653 -37.1648 -17.5723 -17.4406 -17.4394
    10.1253  12.9955  13.1124  14.5636  14.5875  15.0566  16.3434  16.8647
    17.1722  17.2797

          k = 0.0909 0.0909 0.3636 (  4406 PWs)   bands (ev):

   -71.1047 -41.2942 -37.1849 -37.1645 -37.1644 -17.6354 -17.4353 -17.4350
    10.9822  12.9973  13.4725  14.4992  14.5847  14.9872  16.0159  16.5949
    16.8400  17.2405

          k = 0.0909 0.0909 0.4545 (  4401 PWs)   bands (ev):

   -71.1044 -41.2910 -37.1886 -37.1642 -37.1640 -17.6726 -17.4324 -17.4321
    11.8562  12.6454  13.7869  14.3907  14.6764  14.9141  15.7778  16.3247
    16.6001  17.3210

          k = 0.0909 0.1818 0.1818 (  4416 PWs)   bands (ev):

   -71.1054 -41.3006 -37.1728 -37.1701 -37.1651 -17.5026 -17.4930 -17.4410
     9.8535  12.9399  13.0338  14.4813  14.5624  15.0251  16.6848  16.8956
    17.0988  17.5867

          k = 0.0909 0.1818 0.2727 (  4418 PWs)   bands (ev):

   -71.1048 -41.2943 -37.1791 -37.1708 -37.1645 -17.5662 -17.4907 -17.4355
    10.4964  13.0782  13.3249  14.3699  14.4703  14.8702  16.5574  16.7991
    17.0935  17.2925

          k = 0.0909 0.1818 0.3636 (  4404 PWs)   bands (ev):

   -71.1043 -41.2885 -37.1855 -37.1708 -37.1639 -17.6278 -17.4849 -17.4304
    11.2694  13.0521  13.6120  14.3012  14.4552  14.7157  16.3601  16.4837
    16.9616  17.5076

          k = 0.0909 0.1818 0.4545 (  4405 PWs)   bands (ev):

   -71.1040 -41.2850 -37.1894 -37.1707 -37.1635 -17.6643 -17.4813 -17.4274
    12.0146  12.7358  13.8324  14.2310  14.5482  14.6500  16.1839  16.2451
    16.7808  17.8345

          k = 0.0909 0.2727 0.2727 (  4416 PWs)   bands (ev):

   -71.1042 -41.2874 -37.1807 -37.1773 -37.1638 -17.5629 -17.5518 -17.4296
    11.0371  13.0521  13.6955  14.1946  14.4009  14.6114  16.5989  16.8241
    16.9427  17.5025

          k = 0.0909 0.2727 0.3636 (  4405 PWs)   bands (ev):

   -71.1037 -41.2810 -37.1865 -37.1791 -37.1632 -17.6180 -17.5494 -17.4242
    11.6247  12.9117  14.0177  14.0941  14.4108  14.5059  16.3996  16.7386
    17.0034  17.8542

          k = 0.0909 0.2727 0.4545 (  4410 PWs)   bands (ev):

   -71.1034 -41.2772 -37.1906 -37.1794 -37.1628 -17.6534 -17.5450 -17.4209
    12.0988  12.6824  14.0699  14.0978  14.3428  14.8243  16.1308  16.7198
    16.9305  18.2732

          k = 0.0909 0.3636 0.3636 (  4426 PWs)   bands (ev):

   -71.1032 -41.2741 -37.1880 -37.1860 -37.1625 -17.6118 -17.6054 -17.4184
    11.9081  12.7123  13.9439  14.1404  14.5491  14.7794  16.4017  16.8312
    17.0649  18.2403

          k = 0.0909 0.3636 0.4545 (  4411 PWs)   bands (ev):

   -71.1029 -41.2700 -37.1916 -37.1874 -37.1621 -17.6434 -17.6031 -17.4150
    12.0578  12.5659  13.8957  13.9669  14.8294  15.3383  16.1711  16.7928
    17.1431  18.4513

          k = 0.0909 0.4545 0.4545 (  4424 PWs)   bands (ev):

   -71.1026 -41.2657 -37.1924 -37.1921 -37.1617 -17.6379 -17.6370 -17.4115
    11.9967  12.4905  13.7998  13.8249  15.4726  15.7748  16.3163  16.3835
    17.3187  18.6494

          k = 0.1818 0.1818 0.1818 (  4416 PWs)   bands (ev):

   -71.1049 -41.2956 -37.1721 -37.1721 -37.1690 -17.4997 -17.4892 -17.4892
    10.2588  13.1607  13.1607  14.3936  14.3936  14.7941  16.8246  16.8246
    17.1412  17.7957

          k = 0.1818 0.1818 0.2727 (  4406 PWs)   bands (ev):

   -71.1044 -41.2890 -37.1790 -37.1712 -37.1699 -17.5602 -17.4877 -17.4843
    10.8715  13.3477  13.3674  14.2720  14.2746  14.5247  16.7175  16.8694
    17.2670  17.4021

          k = 0.1818 0.1818 0.3636 (  4409 PWs)   bands (ev):

   -71.1038 -41.2829 -37.1858 -37.1704 -37.1702 -17.6210 -17.4805 -17.4798
    11.5878  13.2879  13.5574  14.1464  14.2915  14.4657  16.6059  16.6138
    16.8543  17.8856

          k = 0.1818 0.1818 0.4545 (  4408 PWs)   bands (ev):

   -71.1035 -41.2793 -37.1899 -37.1704 -37.1699 -17.6570 -17.4771 -17.4761
    12.2449  12.9334  13.7330  14.0295  14.3822  14.6028  16.2400  16.5480
    16.6147  18.2213

          k = 0.1818 0.2727 0.2727 (  4418 PWs)   bands (ev):

   -71.1038 -41.2820 -37.1800 -37.1776 -37.1700 -17.5562 -17.5479 -17.4797
    11.4144  13.3462  13.7165  14.1034  14.1638  14.2268  16.7149  16.8709
    17.1908  17.8113

          k = 0.1818 0.2727 0.3636 (  4414 PWs)   bands (ev):

   -71.1033 -41.2755 -37.1863 -37.1786 -37.1696 -17.6121 -17.5447 -17.4739
    11.9879  13.2009  13.8569  13.9954  14.1847  14.2957  16.4974  16.7165
    17.0984  18.0985

          k = 0.1818 0.2727 0.4545 (  4408 PWs)   bands (ev):

   -71.1030 -41.2717 -37.1905 -37.1788 -37.1693 -17.6474 -17.5405 -17.4704
    12.4191  12.9640  13.8562  13.9327  14.2441  14.6550  16.1624  16.5818
    17.0216  18.2852

          k = 0.1818 0.3636 0.3636 (  4421 PWs)   bands (ev):

   -71.1028 -41.2688 -37.1872 -37.1858 -37.1690 -17.6061 -17.6014 -17.4681
    12.2865  12.9989  13.8724  13.9654  14.4227  14.4316  16.3873  16.5792
    17.3251  18.2420

          k = 0.1818 0.3636 0.4545 (  4418 PWs)   bands (ev):

   -71.1025 -41.2647 -37.1911 -37.1867 -37.1686 -17.6385 -17.5988 -17.4647
    12.4113  12.8645  13.8220  13.8605  14.6002  14.9719  16.1200  16.4497
    17.3900  18.4488

          k = 0.1818 0.4545 0.4545 (  4426 PWs)   bands (ev):

   -71.1022 -41.2606 -37.1915 -37.1913 -37.1681 -17.6336 -17.6329 -17.4613
    12.3524  12.7922  13.7466  13.7639  15.2094  15.2768  16.0207  16.1891
    17.5487  18.7035

          k = 0.2727 0.2727 0.2727 (  4401 PWs)   bands (ev):

   -71.1032 -41.2749 -37.1790 -37.1790 -37.1771 -17.5494 -17.5428 -17.5428
    11.9536  13.7371  13.7371  13.8040  13.9888  13.9888  16.7155  16.7155
    17.5999  17.5999

          k = 0.2727 0.2727 0.3636 (  4412 PWs)   bands (ev):

   -71.1027 -41.2684 -37.1860 -37.1781 -37.1780 -17.6044 -17.5389 -17.5380
    12.4815  13.4423  13.7486  13.8864  13.9689  14.1593  16.4790  16.5348
    17.4692  18.0275

          k = 0.2727 0.2727 0.4545 (  4420 PWs)   bands (ev):

   -71.1024 -41.2645 -37.1905 -37.1782 -37.1776 -17.6394 -17.5352 -17.5341
    12.7937  13.2034  13.7545  13.8234  14.0891  14.5203  16.1140  16.4262
    17.4229  18.3170

          k = 0.2727 0.3636 0.3636 (  4419 PWs)   bands (ev):

   -71.1022 -41.2618 -37.1862 -37.1854 -37.1774 -17.5986 -17.5961 -17.5327
    12.8479  13.3113  13.7910  13.8491  14.0316  14.2464  16.3398  16.3451
    17.7305  18.2023

          k = 0.2727 0.3636 0.4545 (  4424 PWs)   bands (ev):

   -71.1019 -41.2578 -37.1904 -37.1857 -37.1770 -17.6321 -17.5932 -17.5292
    12.9224  13.2157  13.7530  13.7851  14.2533  14.5897  16.0347  16.2725
    17.7839  18.4813

          k = 0.2727 0.4545 0.4545 (  4433 PWs)   bands (ev):

   -71.1016 -41.2539 -37.1904 -37.1903 -37.1766 -17.6280 -17.6276 -17.5260
    12.8834  13.1775  13.6934  13.7128  14.7148  14.7501  15.8904  16.1227
    17.9340  18.7358

          k = 0.3636 0.3636 0.3636 (  4410 PWs)   bands (ev):

   -71.1017 -41.2553 -37.1852 -37.1852 -37.1851 -17.5921 -17.5913 -17.5913
    13.3279  13.4828  13.7386  13.7386  14.0400  14.0400  16.1896  16.1896
    18.2077  18.2077

          k = 0.3636 0.3636 0.4545 (  4431 PWs)   bands (ev):

   -71.1014 -41.2515 -37.1898 -37.1850 -37.1846 -17.6263 -17.5884 -17.5877
    13.3328  13.4495  13.7412  13.8798  13.9645  14.3364  15.9569  16.1236
    18.2186  18.5616

          k = 0.3636 0.4545 0.4545 (  4436 PWs)   bands (ev):

   -71.1011 -41.2477 -37.1894 -37.1894 -37.1843 -17.6228 -17.6227 -17.5850
    13.4284  13.5209  13.6789  13.7548  14.2643  14.3187  15.8567  16.0020
    18.4089  18.7606

          k = 0.4545 0.4545 0.4545 (  4407 PWs)   bands (ev):

   -71.1008 -41.2441 -37.1889 -37.1888 -37.1888 -17.6198 -17.6198 -17.6197
    13.6153  13.7249  13.7249  14.0136  14.0267  14.0267  15.8483  15.8483
    18.7747  18.7747

     the Fermi energy is    15.6890 ev

!    total energy              =    -448.57927001 Ry
     estimated scf accuracy    <          2.6E-10 Ry
     smearing contrib. (-TS)   =       0.00002163 Ry
     internal energy E=F+TS    =    -448.57929164 Ry

     The total energy is F=E-TS. E is the sum of the following terms:
     one-electron contribution =    -164.61219141 Ry
     hartree contribution      =      96.17901711 Ry
     xc contribution           =     -52.72433362 Ry
     ewald contribution        =    -251.27025643 Ry
     one-center paw contrib.   =     -76.15152728 Ry

     convergence has been achieved in  41 iterations

     negative rho (up, down):  9.332E-04 0.000E+00

     Forces acting on atoms (cartesian axes, Ry/au):

     atom    1 type  1   force =     0.00000000    0.00000000    0.00000000
     atom    2 type  2   force =     0.00000000    0.00000000    0.00000000

     Total force =     0.000000     Total SCF correction =     0.000000


     Computing stress (Cartesian axis) and pressure


     negative rho (up, down):  9.332E-04 0.000E+00
          total   stress  (Ry/bohr**3)                   (kbar)     P=     -138.04
  -0.00093840   0.00000000   0.00000000         -138.04        0.00        0.00
   0.00000000  -0.00093840   0.00000000            0.00     -138.04        0.00
   0.00000000   0.00000000  -0.00093840            0.00        0.00     -138.04


     Writing all to output data dir ./TiFe.save/ :
     XML data file, charge density, pseudopotentials, collected wavefunctions

     init_run     :      1.47s CPU      1.54s WALL (       1 calls)
     electrons    :     59.67s CPU     62.53s WALL (       1 calls)
     forces       :      0.26s CPU      0.28s WALL (       1 calls)
     stress       :      1.56s CPU      1.63s WALL (       1 calls)

     Called by init_run:
     wfcinit      :      0.45s CPU      0.47s WALL (       1 calls)
     potinit      :      0.21s CPU      0.21s WALL (       1 calls)
     hinit0       :      0.63s CPU      0.64s WALL (       1 calls)

     Called by electrons:
     c_bands      :     39.74s CPU     40.49s WALL (      41 calls)
     sum_band     :     11.41s CPU     12.50s WALL (      41 calls)
     v_of_rho     :      1.01s CPU      1.07s WALL (      42 calls)
     newd         :      5.26s CPU      6.15s WALL (      42 calls)
     PAW_pot      :      2.24s CPU      2.30s WALL (      42 calls)
     mix_rho      :      0.12s CPU      0.13s WALL (      41 calls)

     Called by c_bands:
     init_us_2    :      0.82s CPU      0.85s WALL (    4760 calls)
     cegterg      :     38.28s CPU     38.98s WALL (    2296 calls)

     Called by *egterg:
     cdiaghg      :      3.44s CPU      3.50s WALL (    9675 calls)
     h_psi        :     30.87s CPU     31.46s WALL (    9731 calls)
     s_psi        :      0.59s CPU      0.60s WALL (    9731 calls)
     g_psi        :      0.13s CPU      0.13s WALL (    7379 calls)

     Called by h_psi:
     h_psi:calbec :      1.22s CPU      1.24s WALL (    9731 calls)
     vloc_psi     :     28.90s CPU     29.45s WALL (    9731 calls)
     add_vuspsi   :      0.62s CPU      0.64s WALL (    9731 calls)

     General routines
     calbec       :      1.69s CPU      1.72s WALL (   12979 calls)
     fft          :      1.02s CPU      1.11s WALL (     569 calls)
     ffts         :      0.12s CPU      0.13s WALL (      83 calls)
     fftw         :     29.01s CPU     29.54s WALL (  258370 calls)
     interpolate  :      0.15s CPU      0.16s WALL (      42 calls)

     Parallel routines

     PWSCF        :     63.25s CPU     66.42s WALL


   This run was terminated on:   0:50:51  25Oct2025            

=------------------------------------------------------------------------------=
   JOB DONE.
=------------------------------------------------------------------------------=
