
     Program PWSCF v.7.4 starts on 25Oct2025 at  0:46:22 

     This program is part of the open-source Quantum ESPRESSO suite
     for quantum simulation of materials; please cite
         "P. Giannozzi et al., J. Phys.:Condens. Matter 21 395502 (2009);
         "P. Giannozzi et al., J. Phys.:Condens. Matter 29 465901 (2017);
         "P. Giannozzi et al., J. Chem. Phys. 152 154105 (2020);
          URL http://www.quantum-espresso.org", 
     in publications or presentations arising from this work. More details at
     http://www.quantum-espresso.org/quote

     Parallel version (MPI & OpenMP), running on       8 processor cores
     Number of MPI processes:                 8
     Threads/MPI process:                     1

     MPI processes distributed on     1 nodes
     210539 MiB available memory on the printing compute node when the environment starts

     Reading input from TiFe_19.in

     Current dimensions of program PWSCF are:
     Max number of different atomic species (ntypx) = 10
     Max number of k-points (npk) =  40000
     Max angular momentum in pseudopotentials (lmaxx) =  4
     file Fe.pbe-spn-kjpaw_psl.0.2.1.UPF: wavefunction(s)  3D renormalized

     IMPORTANT: XC functional enforced from input :
     Exchange-correlation= PBE
                           (   1   4   3   4   0   0   0)
     Any further DFT definition will be discarded
     Please, verify this is what you really want

     Message from routine setup:
     using ibrav=0 with symmetry is DISCOURAGED, use correct ibrav instead

     R & G space division:  proc/nbgrp/npool/nimage =       8
     Subspace diagonalization in iterative solution of the eigenvalue problem:
     a serial algorithm will be used


     Parallelization info
     --------------------
     sticks:   dense  smooth     PW     G-vecs:    dense   smooth      PW
     Min         559     160     46                28095     4306     680
     Max         560     161     47                28097     4309     683
     Sum        4477    1281    373               224767    34457    5449

     Using Slab Decomposition



     bravais-lattice index     =            0
     lattice parameter (alat)  =       5.6856  a.u.
     unit-cell volume          =     183.7912 (a.u.)^3
     number of atoms/cell      =            2
     number of atomic types    =            2
     number of electrons       =        28.00
     number of Kohn-Sham states=           18
     kinetic-energy cutoff     =     124.0000  Ry
     charge density cutoff     =    1736.0000  Ry
     scf convergence threshold =      1.0E-08
     mixing beta               =       0.7000
     number of iterations used =            8  plain     mixing
     Exchange-correlation= PBE
                           (   1   4   3   4   0   0   0)

     celldm(1)=   5.685581  celldm(2)=   0.000000  celldm(3)=   0.000000
     celldm(4)=   0.000000  celldm(5)=   0.000000  celldm(6)=   0.000000

     crystal axes: (cart. coord. in units of alat)
               a(1) = (   1.000000   0.000000   0.000000 )  
               a(2) = (   0.000000   1.000000   0.000000 )  
               a(3) = (   0.000000   0.000000   1.000000 )  

     reciprocal axes: (cart. coord. in units 2 pi/alat)
               b(1) = (  1.000000  0.000000  0.000000 )  
               b(2) = (  0.000000  1.000000  0.000000 )  
               b(3) = (  0.000000  0.000000  1.000000 )  


     PseudoPot. # 1 for Fe read from file:
     ../pseudos/Fe.pbe-spn-kjpaw_psl.0.2.1.UPF
     MD5 check sum: e86618425769142926afa95317d90200
     Pseudo is Projector augmented-wave + core cor, Zval = 16.0
     Generated using "atomic" code by A. Dal Corso  v.5.0.99 svn rev. 10869
     Shape of augmentation charge: PSQ
     Using radial grid of 1191 points,  6 beta functions with: 
                l(1) =   0
                l(2) =   0
                l(3) =   1
                l(4) =   1
                l(5) =   2
                l(6) =   2
     Q(r) pseudized with 0 coefficients 


     PseudoPot. # 2 for Ti read from file:
     ../pseudos/ti_pbe_v1.4.uspp.F.UPF
     MD5 check sum: 88a00a6731bd790ddea75d31a80cb452
     Pseudo is Ultrasoft + core correction, Zval = 12.0
     Generated by new atomic code, or converted to UPF format
     Using radial grid of  851 points,  6 beta functions with: 
                l(1) =   0
                l(2) =   0
                l(3) =   1
                l(4) =   1
                l(5) =   2
                l(6) =   2
     Q(r) pseudized with  6 coefficients,  rinner =    1.000   1.000   1.000
                                                       1.000   1.000

     atomic species   valence    mass     pseudopotential
     Fe               16.00    55.84500     Fe( 1.00)
     Ti               12.00    47.86700     Ti( 1.00)

     48 Sym. Ops., with inversion, found



   Cartesian axes

     site n.     atom                  positions (alat units)
         1        Fe     tau(   1) = (   0.5000000   0.5000000   0.5000000  )
         2        Ti     tau(   2) = (   0.0000000   0.0000000   0.0000000  )

     number of k points=    56  Marzari-Vanderbilt smearing, width (Ry)=  0.0050
                       cart. coord. in units 2pi/alat
        k(    1) = (   0.0000000   0.0000000   0.0000000), wk =   0.0015026
        k(    2) = (   0.0000000   0.0000000   0.0909091), wk =   0.0090158
        k(    3) = (   0.0000000   0.0000000   0.1818182), wk =   0.0090158
        k(    4) = (   0.0000000   0.0000000   0.2727273), wk =   0.0090158
        k(    5) = (   0.0000000   0.0000000   0.3636364), wk =   0.0090158
        k(    6) = (   0.0000000   0.0000000   0.4545455), wk =   0.0090158
        k(    7) = (   0.0000000   0.0909091   0.0909091), wk =   0.0180316
        k(    8) = (   0.0000000   0.0909091   0.1818182), wk =   0.0360631
        k(    9) = (   0.0000000   0.0909091   0.2727273), wk =   0.0360631
        k(   10) = (   0.0000000   0.0909091   0.3636364), wk =   0.0360631
        k(   11) = (   0.0000000   0.0909091   0.4545455), wk =   0.0360631
        k(   12) = (   0.0000000   0.1818182   0.1818182), wk =   0.0180316
        k(   13) = (   0.0000000   0.1818182   0.2727273), wk =   0.0360631
        k(   14) = (   0.0000000   0.1818182   0.3636364), wk =   0.0360631
        k(   15) = (   0.0000000   0.1818182   0.4545455), wk =   0.0360631
        k(   16) = (   0.0000000   0.2727273   0.2727273), wk =   0.0180316
        k(   17) = (   0.0000000   0.2727273   0.3636364), wk =   0.0360631
        k(   18) = (   0.0000000   0.2727273   0.4545455), wk =   0.0360631
        k(   19) = (   0.0000000   0.3636364   0.3636364), wk =   0.0180316
        k(   20) = (   0.0000000   0.3636364   0.4545455), wk =   0.0360631
        k(   21) = (   0.0000000   0.4545455   0.4545455), wk =   0.0180316
        k(   22) = (   0.0909091   0.0909091   0.0909091), wk =   0.0120210
        k(   23) = (   0.0909091   0.0909091   0.1818182), wk =   0.0360631
        k(   24) = (   0.0909091   0.0909091   0.2727273), wk =   0.0360631
        k(   25) = (   0.0909091   0.0909091   0.3636364), wk =   0.0360631
        k(   26) = (   0.0909091   0.0909091   0.4545455), wk =   0.0360631
        k(   27) = (   0.0909091   0.1818182   0.1818182), wk =   0.0360631
        k(   28) = (   0.0909091   0.1818182   0.2727273), wk =   0.0721262
        k(   29) = (   0.0909091   0.1818182   0.3636364), wk =   0.0721262
        k(   30) = (   0.0909091   0.1818182   0.4545455), wk =   0.0721262
        k(   31) = (   0.0909091   0.2727273   0.2727273), wk =   0.0360631
        k(   32) = (   0.0909091   0.2727273   0.3636364), wk =   0.0721262
        k(   33) = (   0.0909091   0.2727273   0.4545455), wk =   0.0721262
        k(   34) = (   0.0909091   0.3636364   0.3636364), wk =   0.0360631
        k(   35) = (   0.0909091   0.3636364   0.4545455), wk =   0.0721262
        k(   36) = (   0.0909091   0.4545455   0.4545455), wk =   0.0360631
        k(   37) = (   0.1818182   0.1818182   0.1818182), wk =   0.0120210
        k(   38) = (   0.1818182   0.1818182   0.2727273), wk =   0.0360631
        k(   39) = (   0.1818182   0.1818182   0.3636364), wk =   0.0360631
        k(   40) = (   0.1818182   0.1818182   0.4545455), wk =   0.0360631
        k(   41) = (   0.1818182   0.2727273   0.2727273), wk =   0.0360631
        k(   42) = (   0.1818182   0.2727273   0.3636364), wk =   0.0721262
        k(   43) = (   0.1818182   0.2727273   0.4545455), wk =   0.0721262
        k(   44) = (   0.1818182   0.3636364   0.3636364), wk =   0.0360631
        k(   45) = (   0.1818182   0.3636364   0.4545455), wk =   0.0721262
        k(   46) = (   0.1818182   0.4545455   0.4545455), wk =   0.0360631
        k(   47) = (   0.2727273   0.2727273   0.2727273), wk =   0.0120210
        k(   48) = (   0.2727273   0.2727273   0.3636364), wk =   0.0360631
        k(   49) = (   0.2727273   0.2727273   0.4545455), wk =   0.0360631
        k(   50) = (   0.2727273   0.3636364   0.3636364), wk =   0.0360631
        k(   51) = (   0.2727273   0.3636364   0.4545455), wk =   0.0721262
        k(   52) = (   0.2727273   0.4545455   0.4545455), wk =   0.0360631
        k(   53) = (   0.3636364   0.3636364   0.3636364), wk =   0.0120210
        k(   54) = (   0.3636364   0.3636364   0.4545455), wk =   0.0360631
        k(   55) = (   0.3636364   0.4545455   0.4545455), wk =   0.0360631
        k(   56) = (   0.4545455   0.4545455   0.4545455), wk =   0.0120210

     Dense  grid:   224767 G-vectors     FFT dimensions: (  75,  75,  75)

     Smooth grid:    34457 G-vectors     FFT dimensions: (  45,  45,  45)

     Estimated max dynamical RAM per process >     117.75 MB

     Estimated total dynamical RAM >     941.97 MB

     Check: negative core charge=   -0.000002

     Initial potential from superposition of free atoms

     starting charge      26.9995, renormalised to      28.0000

     negative rho (up, down):  1.375E-03 0.000E+00
     Starting wfcs are   23 randomized atomic wfcs
     Checking if some PAW data can be deallocated... 

     total cpu time spent up to now is        1.3 secs

     per-process dynamical memory:   136.0 Mb

     Self-consistent Calculation

     iteration #  1     ecut=   124.00 Ry     beta= 0.70
     Davidson diagonalization with overlap
     ethr =  1.00E-02,  avg # of iterations =  2.2

     negative rho (up, down):  1.150E-04 0.000E+00

     total cpu time spent up to now is        2.8 secs

     total energy              =    -433.54409765 Ry
     estimated scf accuracy    <      19.08979233 Ry

     iteration #  2     ecut=   124.00 Ry     beta= 0.70
     Davidson diagonalization with overlap
     ethr =  1.00E-02,  avg # of iterations =  6.1

     negative rho (up, down):  1.652E-05 0.000E+00

     total cpu time spent up to now is        5.1 secs

     total energy              =    -448.18846879 Ry
     estimated scf accuracy    <      72.62081256 Ry

     iteration #  3     ecut=   124.00 Ry     beta= 0.70
     Davidson diagonalization with overlap
     ethr =  1.00E-02,  avg # of iterations =  3.1

     negative rho (up, down):  1.668E-04 0.000E+00

     total cpu time spent up to now is        6.8 secs

     total energy              =    -448.85186967 Ry
     estimated scf accuracy    <      18.01416233 Ry

     iteration #  4     ecut=   124.00 Ry     beta= 0.70
     Davidson diagonalization with overlap
     ethr =  1.00E-02,  avg # of iterations =  2.1

     negative rho (up, down):  2.443E-04 0.000E+00

     total cpu time spent up to now is        8.2 secs

     total energy              =    -449.15873937 Ry
     estimated scf accuracy    <       6.05695725 Ry

     iteration #  5     ecut=   124.00 Ry     beta= 0.70
     Davidson diagonalization with overlap
     ethr =  1.00E-02,  avg # of iterations =  1.1

     negative rho (up, down):  5.452E-04 0.000E+00

     total cpu time spent up to now is        9.4 secs

     total energy              =    -448.83603517 Ry
     estimated scf accuracy    <       4.83490190 Ry

     iteration #  6     ecut=   124.00 Ry     beta= 0.70
     Davidson diagonalization with overlap
     ethr =  1.00E-02,  avg # of iterations =  1.2

     negative rho (up, down):  9.858E-04 0.000E+00

     total cpu time spent up to now is       10.7 secs

     total energy              =    -448.09514320 Ry
     estimated scf accuracy    <       3.73843396 Ry

     iteration #  7     ecut=   124.00 Ry     beta= 0.70
     Davidson diagonalization with overlap
     ethr =  1.00E-02,  avg # of iterations =  2.6

     negative rho (up, down):  1.131E-03 0.000E+00

     total cpu time spent up to now is       12.0 secs

     total energy              =    -448.77246167 Ry
     estimated scf accuracy    <       1.47626179 Ry

     iteration #  8     ecut=   124.00 Ry     beta= 0.70
     Davidson diagonalization with overlap
     ethr =  5.27E-03,  avg # of iterations =  2.9

     negative rho (up, down):  4.662E-04 0.000E+00

     total cpu time spent up to now is       13.4 secs

     total energy              =    -447.44749426 Ry
     estimated scf accuracy    <       7.78872461 Ry

     iteration #  9     ecut=   124.00 Ry     beta= 0.70
     Davidson diagonalization with overlap
     ethr =  5.27E-03,  avg # of iterations =  3.6

     negative rho (up, down):  6.494E-04 0.000E+00

     total cpu time spent up to now is       14.8 secs

     total energy              =    -448.41331680 Ry
     estimated scf accuracy    <       3.63839101 Ry

     iteration # 10     ecut=   124.00 Ry     beta= 0.70
     Davidson diagonalization with overlap
     ethr =  5.27E-03,  avg # of iterations =  1.3

     negative rho (up, down):  7.239E-04 0.000E+00

     total cpu time spent up to now is       16.1 secs

     total energy              =    -448.58096724 Ry
     estimated scf accuracy    <       0.14219397 Ry

     iteration # 11     ecut=   124.00 Ry     beta= 0.70
     Davidson diagonalization with overlap
     ethr =  5.08E-04,  avg # of iterations =  3.6

     negative rho (up, down):  6.280E-04 0.000E+00

     total cpu time spent up to now is       17.4 secs

     total energy              =    -448.60440360 Ry
     estimated scf accuracy    <       0.04858414 Ry

     iteration # 12     ecut=   124.00 Ry     beta= 0.70
     Davidson diagonalization with overlap
     ethr =  1.74E-04,  avg # of iterations =  3.6

     negative rho (up, down):  2.041E-04 0.000E+00

     total cpu time spent up to now is       18.9 secs

     total energy              =    -448.60173895 Ry
     estimated scf accuracy    <       0.28036433 Ry

     iteration # 13     ecut=   124.00 Ry     beta= 0.70
     Davidson diagonalization with overlap
     ethr =  1.74E-04,  avg # of iterations =  5.3

     negative rho (up, down):  1.584E-04 0.000E+00

     total cpu time spent up to now is       20.7 secs

     total energy              =    -448.89820218 Ry
     estimated scf accuracy    <       1.90319460 Ry

     iteration # 14     ecut=   124.00 Ry     beta= 0.70
     Davidson diagonalization with overlap
     ethr =  1.74E-04,  avg # of iterations =  1.5

     negative rho (up, down):  7.105E-04 0.000E+00

     total cpu time spent up to now is       22.0 secs

     total energy              =    -448.56488897 Ry
     estimated scf accuracy    <       2.19051682 Ry

     iteration # 15     ecut=   124.00 Ry     beta= 0.70
     Davidson diagonalization with overlap
     ethr =  1.74E-04,  avg # of iterations =  5.2

     negative rho (up, down):  5.492E-04 0.000E+00

     total cpu time spent up to now is       23.8 secs

     total energy              =    -448.64389760 Ry
     estimated scf accuracy    <       0.47691202 Ry

     iteration # 16     ecut=   124.00 Ry     beta= 0.70
     Davidson diagonalization with overlap
     ethr =  1.74E-04,  avg # of iterations =  1.2

     negative rho (up, down):  8.990E-04 0.000E+00

     total cpu time spent up to now is       25.0 secs

     total energy              =    -448.56243123 Ry
     estimated scf accuracy    <       0.53029820 Ry

     iteration # 17     ecut=   124.00 Ry     beta= 0.70
     Davidson diagonalization with overlap
     ethr =  1.74E-04,  avg # of iterations =  3.9

     negative rho (up, down):  1.219E-03 0.000E+00

     total cpu time spent up to now is       26.6 secs

     total energy              =    -448.57238796 Ry
     estimated scf accuracy    <       0.02425804 Ry

     iteration # 18     ecut=   124.00 Ry     beta= 0.70
     Davidson diagonalization with overlap
     ethr =  8.66E-05,  avg # of iterations =  5.2

     negative rho (up, down):  6.057E-06 0.000E+00

     total cpu time spent up to now is       28.5 secs

     total energy              =    -448.41700850 Ry
     estimated scf accuracy    <       0.48016229 Ry

     iteration # 19     ecut=   124.00 Ry     beta= 0.70
     Davidson diagonalization with overlap
     ethr =  8.66E-05,  avg # of iterations =  9.2

     negative rho (up, down):  1.154E-03 0.000E+00

     total cpu time spent up to now is       31.1 secs

     total energy              =    -447.96767317 Ry
     estimated scf accuracy    <       5.64801089 Ry

     iteration # 20     ecut=   124.00 Ry     beta= 0.70
     Davidson diagonalization with overlap
     ethr =  8.66E-05,  avg # of iterations =  7.9

     negative rho (up, down):  1.205E-03 0.000E+00

     total cpu time spent up to now is       33.7 secs

     total energy              =    -448.65369103 Ry
     estimated scf accuracy    <       1.12576890 Ry

     iteration # 21     ecut=   124.00 Ry     beta= 0.70
     Davidson diagonalization with overlap
     ethr =  8.66E-05,  avg # of iterations =  1.6

     negative rho (up, down):  1.468E-03 0.000E+00

     total cpu time spent up to now is       35.0 secs

     total energy              =    -448.75353892 Ry
     estimated scf accuracy    <       1.56391947 Ry

     iteration # 22     ecut=   124.00 Ry     beta= 0.70
     Davidson diagonalization with overlap
     ethr =  8.66E-05,  avg # of iterations =  5.1

     negative rho (up, down):  8.655E-05 0.000E+00

     total cpu time spent up to now is       36.7 secs

     total energy              =    -447.62975942 Ry
     estimated scf accuracy    <       5.64676109 Ry

     iteration # 23     ecut=   124.00 Ry     beta= 0.70
     Davidson diagonalization with overlap
     ethr =  8.66E-05,  avg # of iterations =  8.1

     negative rho (up, down):  2.763E-05 0.000E+00

     total cpu time spent up to now is       39.2 secs

     total energy              =    -449.11580637 Ry
     estimated scf accuracy    <       2.33463788 Ry

     iteration # 24     ecut=   124.00 Ry     beta= 0.70
     Davidson diagonalization with overlap
     ethr =  8.66E-05,  avg # of iterations =  3.5

     negative rho (up, down):  8.553E-05 0.000E+00

     total cpu time spent up to now is       40.7 secs

     total energy              =    -448.97208253 Ry
     estimated scf accuracy    <       3.49210080 Ry

     iteration # 25     ecut=   124.00 Ry     beta= 0.70
     Davidson diagonalization with overlap
     ethr =  8.66E-05,  avg # of iterations =  2.2

     total cpu time spent up to now is       42.1 secs

     total energy              =    -450.63518925 Ry
     estimated scf accuracy    <       2.72410766 Ry

     iteration # 26     ecut=   124.00 Ry     beta= 0.70
     Davidson diagonalization with overlap
     ethr =  8.66E-05,  avg # of iterations =  8.4

     total cpu time spent up to now is       44.5 secs

     total energy              =    -449.93786585 Ry
     estimated scf accuracy    <       9.81631944 Ry

     iteration # 27     ecut=   124.00 Ry     beta= 0.70
     Davidson diagonalization with overlap
     ethr =  8.66E-05,  avg # of iterations =  5.6

     total cpu time spent up to now is       46.3 secs

     total energy              =    -449.77925569 Ry
     estimated scf accuracy    <       6.93405713 Ry

     iteration # 28     ecut=   124.00 Ry     beta= 0.70
     Davidson diagonalization with overlap
     ethr =  8.66E-05,  avg # of iterations =  2.1

     negative rho (up, down):  3.629E-04 0.000E+00

     total cpu time spent up to now is       47.8 secs

     total energy              =    -448.54373899 Ry
     estimated scf accuracy    <       6.27213679 Ry

     iteration # 29     ecut=   124.00 Ry     beta= 0.70
     Davidson diagonalization with overlap
     ethr =  8.66E-05,  avg # of iterations =  7.4
     Minimization algorithm failed to find Fermi energy: reverting to bisection
     Possible cause: smearing is larger than the electronic band-gap.

     negative rho (up, down):  1.853E-03 0.000E+00

     total cpu time spent up to now is       50.1 secs

     total energy              =    -448.22310859 Ry
     estimated scf accuracy    <       1.41994469 Ry

     iteration # 30     ecut=   124.00 Ry     beta= 0.70
     Davidson diagonalization with overlap
     ethr =  8.66E-05,  avg # of iterations =  7.9

     negative rho (up, down):  1.003E-03 0.000E+00

     total cpu time spent up to now is       52.6 secs

     total energy              =    -448.08893520 Ry
     estimated scf accuracy    <      15.79839044 Ry

     iteration # 31     ecut=   124.00 Ry     beta= 0.70
     Davidson diagonalization with overlap
     ethr =  8.66E-05,  avg # of iterations =  6.3

     negative rho (up, down):  6.557E-04 0.000E+00

     total cpu time spent up to now is       54.7 secs

     total energy              =    -448.54256067 Ry
     estimated scf accuracy    <       0.23586274 Ry

     iteration # 32     ecut=   124.00 Ry     beta= 0.70
     Davidson diagonalization with overlap
     ethr =  8.66E-05,  avg # of iterations =  5.2

     negative rho (up, down):  6.757E-04 0.000E+00

     total cpu time spent up to now is       56.6 secs

     total energy              =    -448.61026825 Ry
     estimated scf accuracy    <       0.38070682 Ry

     iteration # 33     ecut=   124.00 Ry     beta= 0.70
     Davidson diagonalization with overlap
     ethr =  8.66E-05,  avg # of iterations =  1.0

     negative rho (up, down):  7.372E-04 0.000E+00

     total cpu time spent up to now is       57.8 secs

     total energy              =    -448.59449308 Ry
     estimated scf accuracy    <       0.31253512 Ry

     iteration # 34     ecut=   124.00 Ry     beta= 0.70
     Davidson diagonalization with overlap
     ethr =  8.66E-05,  avg # of iterations =  1.8

     negative rho (up, down):  7.286E-04 0.000E+00

     total cpu time spent up to now is       59.0 secs

     total energy              =    -448.59450190 Ry
     estimated scf accuracy    <       0.14870141 Ry

     iteration # 35     ecut=   124.00 Ry     beta= 0.70
     Davidson diagonalization with overlap
     ethr =  8.66E-05,  avg # of iterations =  1.0

     negative rho (up, down):  7.068E-04 0.000E+00

     total cpu time spent up to now is       60.3 secs

     total energy              =    -448.59706139 Ry
     estimated scf accuracy    <       0.12415669 Ry

     iteration # 36     ecut=   124.00 Ry     beta= 0.70
     Davidson diagonalization with overlap
     ethr =  8.66E-05,  avg # of iterations =  1.0

     negative rho (up, down):  7.562E-04 0.000E+00

     total cpu time spent up to now is       61.5 secs

     total energy              =    -448.59089092 Ry
     estimated scf accuracy    <       0.15196016 Ry

     iteration # 37     ecut=   124.00 Ry     beta= 0.70
     Davidson diagonalization with overlap
     ethr =  8.66E-05,  avg # of iterations =  1.0

     negative rho (up, down):  7.773E-04 0.000E+00

     total cpu time spent up to now is       62.7 secs

     total energy              =    -448.58923431 Ry
     estimated scf accuracy    <       0.08528407 Ry

     iteration # 38     ecut=   124.00 Ry     beta= 0.70
     Davidson diagonalization with overlap
     ethr =  8.66E-05,  avg # of iterations =  1.0

     negative rho (up, down):  7.949E-04 0.000E+00

     total cpu time spent up to now is       64.0 secs

     total energy              =    -448.58876380 Ry
     estimated scf accuracy    <       0.06005281 Ry

     iteration # 39     ecut=   124.00 Ry     beta= 0.70
     Davidson diagonalization with overlap
     ethr =  8.66E-05,  avg # of iterations =  1.0

     negative rho (up, down):  9.658E-04 0.000E+00

     total cpu time spent up to now is       65.2 secs

     total energy              =    -448.58135476 Ry
     estimated scf accuracy    <       0.05441345 Ry

     iteration # 40     ecut=   124.00 Ry     beta= 0.70
     Davidson diagonalization with overlap
     ethr =  8.66E-05,  avg # of iterations =  2.0

     negative rho (up, down):  1.003E-03 0.000E+00

     total cpu time spent up to now is       66.5 secs

     total energy              =    -448.58266693 Ry
     estimated scf accuracy    <       0.00691650 Ry

     iteration # 41     ecut=   124.00 Ry     beta= 0.70
     Davidson diagonalization with overlap
     ethr =  2.47E-05,  avg # of iterations =  4.0

     negative rho (up, down):  9.983E-04 0.000E+00

     total cpu time spent up to now is       67.9 secs

     WARNING: integrated charge=    28.00021686, expected=    28.00000000

     total energy              =    -448.58239184 Ry
     estimated scf accuracy    <       0.00008926 Ry

     iteration # 42     ecut=   124.00 Ry     beta= 0.70
     Davidson diagonalization with overlap
     ethr =  3.19E-07,  avg # of iterations =  4.1

     negative rho (up, down):  1.003E-03 0.000E+00

     total cpu time spent up to now is       69.5 secs

     WARNING: integrated charge=    28.00066544, expected=    28.00000000

     total energy              =    -448.58366789 Ry
     estimated scf accuracy    <       0.00007055 Ry

     iteration # 43     ecut=   124.00 Ry     beta= 0.70
     Davidson diagonalization with overlap
     ethr =  2.52E-07,  avg # of iterations =  1.6

     negative rho (up, down):  9.974E-04 0.000E+00

     total cpu time spent up to now is       70.7 secs

     WARNING: integrated charge=    27.99954471, expected=    28.00000000

     total energy              =    -448.58222788 Ry
     estimated scf accuracy    <       0.00021100 Ry

     iteration # 44     ecut=   124.00 Ry     beta= 0.70
     Davidson diagonalization with overlap
     ethr =  2.52E-07,  avg # of iterations =  2.7

     negative rho (up, down):  9.933E-04 0.000E+00

     total cpu time spent up to now is       72.1 secs

     WARNING: integrated charge=    27.99858154, expected=    28.00000000

     total energy              =    -448.58366100 Ry
     estimated scf accuracy    <       0.00006507 Ry

     iteration # 45     ecut=   124.00 Ry     beta= 0.70
     Davidson diagonalization with overlap
     ethr =  2.32E-07,  avg # of iterations =  1.9

     negative rho (up, down):  9.691E-04 0.000E+00

     total cpu time spent up to now is       73.4 secs

     WARNING: integrated charge=    27.99014461, expected=    28.00000000

     total energy              =    -448.58375723 Ry
     estimated scf accuracy    <       0.00008937 Ry

     iteration # 46     ecut=   124.00 Ry     beta= 0.70
     Davidson diagonalization with overlap
     ethr =  2.32E-07,  avg # of iterations =  4.9

     negative rho (up, down):  9.910E-04 0.000E+00

     total cpu time spent up to now is       75.1 secs

     WARNING: integrated charge=    27.98933047, expected=    28.00000000

     total energy              =    -448.58362190 Ry
     estimated scf accuracy    <       0.00237383 Ry

     iteration # 47     ecut=   124.00 Ry     beta= 0.70
     Davidson diagonalization with overlap
     ethr =  2.32E-07,  avg # of iterations =  4.0

     negative rho (up, down):  9.873E-04 0.000E+00

     total cpu time spent up to now is       76.7 secs

     WARNING: integrated charge=    28.01175405, expected=    28.00000000

     total energy              =    -448.58353323 Ry
     estimated scf accuracy    <       0.00067139 Ry

     iteration # 48     ecut=   124.00 Ry     beta= 0.70
     Davidson diagonalization with overlap
     ethr =  2.32E-07,  avg # of iterations =  5.0

     negative rho (up, down):  9.832E-04 0.000E+00

     total cpu time spent up to now is       78.4 secs

     WARNING: integrated charge=    28.01030884, expected=    28.00000000

     total energy              =    -448.58124526 Ry
     estimated scf accuracy    <       0.00071177 Ry

     iteration # 49     ecut=   124.00 Ry     beta= 0.70
     Davidson diagonalization with overlap
     ethr =  2.32E-07,  avg # of iterations =  1.0

     negative rho (up, down):  9.787E-04 0.000E+00

     total cpu time spent up to now is       79.6 secs

     WARNING: integrated charge=    28.00259637, expected=    28.00000000

     total energy              =    -448.58108874 Ry
     estimated scf accuracy    <       0.00069063 Ry

     iteration # 50     ecut=   124.00 Ry     beta= 0.70
     Davidson diagonalization with overlap
     ethr =  2.32E-07,  avg # of iterations =  3.1

     negative rho (up, down):  9.736E-04 0.000E+00

     total cpu time spent up to now is       81.0 secs

     WARNING: integrated charge=    28.00014387, expected=    28.00000000

     total energy              =    -448.58234295 Ry
     estimated scf accuracy    <       0.00008988 Ry

     iteration # 51     ecut=   124.00 Ry     beta= 0.70
     Davidson diagonalization with overlap
     ethr =  2.32E-07,  avg # of iterations =  2.4

     negative rho (up, down):  9.734E-04 0.000E+00

     total cpu time spent up to now is       82.3 secs

     WARNING: integrated charge=    27.99992410, expected=    28.00000000

     total energy              =    -448.58364542 Ry
     estimated scf accuracy    <       0.00000003 Ry

     iteration # 52     ecut=   124.00 Ry     beta= 0.70
     Davidson diagonalization with overlap
     ethr =  1.12E-10,  avg # of iterations =  7.6

     negative rho (up, down):  9.737E-04 0.000E+00

     total cpu time spent up to now is       84.6 secs

     WARNING: integrated charge=    28.00002264, expected=    28.00000000

     total energy              =    -448.58364617 Ry
     estimated scf accuracy    <       0.00000391 Ry

     iteration # 53     ecut=   124.00 Ry     beta= 0.70
     Davidson diagonalization with overlap
     ethr =  1.12E-10,  avg # of iterations =  4.9

     negative rho (up, down):  9.741E-04 0.000E+00

     total cpu time spent up to now is       86.3 secs

     WARNING: integrated charge=    27.99991621, expected=    28.00000000

     total energy              =    -448.58364597 Ry
     estimated scf accuracy    <       0.00000127 Ry

     iteration # 54     ecut=   124.00 Ry     beta= 0.70
     Davidson diagonalization with overlap
     ethr =  1.12E-10,  avg # of iterations =  5.2

     negative rho (up, down):  9.740E-04 0.000E+00

     total cpu time spent up to now is       88.1 secs

     WARNING: integrated charge=    28.00000522, expected=    28.00000000

     total energy              =    -448.58364610 Ry
     estimated scf accuracy    <       0.00000005 Ry

     iteration # 55     ecut=   124.00 Ry     beta= 0.70
     Davidson diagonalization with overlap
     ethr =  1.12E-10,  avg # of iterations =  2.2

     negative rho (up, down):  9.739E-04 0.000E+00

     total cpu time spent up to now is       89.4 secs

     End of self-consistent calculation

          k = 0.0000 0.0000 0.0000 (  4337 PWs)   bands (ev):

   -70.5629 -40.6942 -36.6216 -36.6216 -36.6216 -16.8057 -16.8057 -16.8057
     8.9849  12.8246  12.8246  15.3429  15.3429  15.3429  17.4909  17.4909
    19.2480  19.2480

          k = 0.0000 0.0000 0.0909 (  4288 PWs)   bands (ev):

   -70.5627 -40.6924 -36.6237 -36.6213 -36.6213 -16.8284 -16.8043 -16.8043
     9.1470  12.9013  12.9014  15.3310  15.3310  15.3774  17.3975  17.5253
    19.0231  19.0231

          k = 0.0000 0.0000 0.1818 (  4280 PWs)   bands (ev):

   -70.5622 -40.6878 -36.6292 -36.6206 -36.6206 -16.8888 -16.8004 -16.8004
     9.6189  13.0975  13.1259  15.3034  15.3034  15.4740  17.1271  17.6006
    18.4974  18.4974

          k = 0.0000 0.0000 0.2727 (  4272 PWs)   bands (ev):

   -70.5615 -40.6818 -36.6364 -36.6196 -36.6196 -16.9672 -16.7953 -16.7953
    10.3569  13.3085  13.4784  15.2784  15.2784  15.6109  16.7116  17.6150
    17.9138  17.9138

          k = 0.0000 0.0000 0.3636 (  4280 PWs)   bands (ev):

   -70.5609 -40.6762 -36.6430 -36.6187 -36.6187 -17.0385 -16.7907 -16.7907
    11.2788  13.3557  13.9130  15.2706  15.2706  15.7500  16.2164  17.4134
    17.4361  17.4361

          k = 0.0000 0.0000 0.4545 (  4264 PWs)   bands (ev):

   -70.5605 -40.6729 -36.6469 -36.6182 -36.6182 -17.0805 -16.7879 -16.7879
    12.2313  13.0322  14.2995  15.2757  15.2757  15.7926  15.8405  17.1105
    17.1666  17.1666

          k = 0.0000 0.0909 0.0909 (  4289 PWs)   bands (ev):

   -70.5625 -40.6907 -36.6242 -36.6227 -36.6211 -16.8289 -16.8246 -16.8028
     9.3062  12.9716  12.9817  15.2577  15.3120  15.4629  17.3837  17.4993
    18.7765  18.7973

          k = 0.0000 0.0909 0.1818 (  4280 PWs)   bands (ev):

   -70.5620 -40.6858 -36.6294 -36.6227 -36.6203 -16.8869 -16.8222 -16.7988
     9.7689  13.1624  13.2011  15.1853  15.2650  15.5680  17.1755  17.5649
    18.2830  18.3170

          k = 0.0000 0.0909 0.2727 (  4263 PWs)   bands (ev):

   -70.5613 -40.6795 -36.6367 -36.6220 -36.6194 -16.9645 -16.8165 -16.7935
    10.4896  13.3721  13.5316  15.1445  15.2114  15.6446  16.8221  17.5250
    17.8265  17.8652

          k = 0.0000 0.0909 0.3636 (  4277 PWs)   bands (ev):

   -70.5607 -40.6738 -36.6434 -36.6214 -36.6185 -17.0352 -16.8113 -16.7887
    11.3838  13.4091  13.9353  15.1465  15.1633  15.6523  16.4151  17.1500
    17.5620  17.6638

          k = 0.0000 0.0909 0.4545 (  4278 PWs)   bands (ev):

   -70.5603 -40.6703 -36.6474 -36.6210 -36.6179 -17.0768 -16.8082 -16.7858
    12.2969  13.0845  14.2906  15.1025  15.1756  15.6073  16.1187  16.8746
    17.4385  17.4773

          k = 0.0000 0.1818 0.1818 (  4276 PWs)   bands (ev):

   -70.5615 -40.6805 -36.6310 -36.6270 -36.6196 -16.8870 -16.8749 -16.7944
    10.2017  13.2953  13.4430  15.0291  15.1757  15.6352  17.2200  17.5292
    17.8111  18.0260

          k = 0.0000 0.1818 0.2727 (  4274 PWs)   bands (ev):

   -70.5608 -40.6735 -36.6376 -36.6283 -36.6187 -16.9575 -16.8730 -16.7887
    10.8640  13.4300  13.7788  14.9195  15.0877  15.5670  17.0683  17.2994
    17.6721  17.8635

          k = 0.0000 0.1818 0.3636 (  4282 PWs)   bands (ev):

   -70.5602 -40.6671 -36.6446 -36.6285 -36.6178 -17.0263 -16.8664 -16.7834
    11.6587  13.4177  14.1312  14.8855  15.0532  15.3805  16.7969  16.9836
    17.7707  17.8780

          k = 0.0000 0.1818 0.4545 (  4278 PWs)   bands (ev):

   -70.5598 -40.6633 -36.6488 -36.6286 -36.6173 -17.0670 -16.8625 -16.7802
    12.4221  13.1314  14.3952  14.9276  15.0713  15.1882  16.6386  16.7572
    17.7744  17.9623

          k = 0.0000 0.2727 0.2727 (  4266 PWs)   bands (ev):

   -70.5601 -40.6657 -36.6400 -36.6352 -36.6178 -16.9544 -16.9401 -16.7823
    11.4055  13.4014  14.1768  14.7320  15.0313  15.3267  17.0936  17.2780
    17.5742  18.0177

          k = 0.0000 0.2727 0.3636 (  4273 PWs)   bands (ev):

   -70.5595 -40.6584 -36.6461 -36.6378 -36.6170 -17.0147 -16.9379 -16.7764
    11.9895  13.2652  14.5749  14.6322  15.0358  15.1503  16.9210  17.2549
    17.7200  18.2641

          k = 0.0000 0.2727 0.4545 (  4291 PWs)   bands (ev):

   -70.5592 -40.6541 -36.6505 -36.6385 -36.6165 -17.0540 -16.9329 -16.7729
    12.4586  13.0451  14.6419  14.7931  14.8009  15.4511  16.6882  17.2192
    17.8939  18.4854

          k = 0.0000 0.3636 0.3636 (  4274 PWs)   bands (ev):

   -70.5589 -40.6504 -36.6483 -36.6455 -36.6162 -17.0076 -16.9994 -16.7700
    12.2475  13.0630  14.4635  14.7230  15.1195  15.4870  17.0246  17.5610
    17.5814  18.6278

          k = 0.0000 0.3636 0.4545 (  4292 PWs)   bands (ev):

   -70.5586 -40.6456 -36.6521 -36.6476 -36.6157 -17.0421 -16.9970 -16.7662
    12.3847  12.9157  14.4160  14.5074  15.4480  16.0756  16.7969  17.6224
    17.7510  18.8999

          k = 0.0000 0.4545 0.4545 (  4294 PWs)   bands (ev):

   -70.5582 -40.6405 -36.6532 -36.6529 -36.6153 -17.0355 -17.0344 -16.7622
    12.3099  12.8349  14.3067  14.3372  16.0978  16.5105  17.1232  17.2903
    17.8686  19.1439

          k = 0.0909 0.0909 0.0909 (  4265 PWs)   bands (ev):

   -70.5623 -40.6888 -36.6239 -36.6239 -36.6219 -16.8290 -16.8231 -16.8231
     9.4629  13.0508  13.0508  15.2371  15.2371  15.5307  17.4293  17.4293
    18.3995  19.0043

          k = 0.0909 0.0909 0.1818 (  4277 PWs)   bands (ev):

   -70.5618 -40.6838 -36.6294 -36.6231 -36.6219 -16.8849 -16.8217 -16.8192
     9.9176  13.2515  13.2519  15.1375  15.1823  15.6028  17.2272  17.5315
    17.9708  18.4755

          k = 0.0909 0.0909 0.2727 (  4270 PWs)   bands (ev):

   -70.5611 -40.6773 -36.6369 -36.6221 -36.6215 -16.9619 -16.8154 -16.8140
    10.6232  13.4607  13.5621  15.0823  15.1076  15.5985  16.9214  17.4767
    17.7884  17.8994

          k = 0.0909 0.0909 0.3636 (  4268 PWs)   bands (ev):

   -70.5605 -40.6713 -36.6438 -36.6212 -36.6211 -17.0320 -16.8095 -16.8093
    11.4927  13.4848  13.9358  15.0160  15.1058  15.5245  16.5775  17.2026
    17.4410  17.8641

          k = 0.0909 0.0909 0.4545 (  4283 PWs)   bands (ev):

   -70.5601 -40.6677 -36.6479 -36.6209 -36.6207 -17.0733 -16.8064 -16.8060
    12.3710  13.1518  14.2625  14.9028  15.2038  15.4468  16.3285  16.9278
    17.1906  17.9506

          k = 0.0909 0.1818 0.1818 (  4277 PWs)   bands (ev):

   -70.5613 -40.6784 -36.6307 -36.6273 -36.6218 -16.8846 -16.8734 -16.8157
    10.3461  13.3871  13.4893  14.9952  15.0815  15.5667  17.2814  17.5037
    17.7111  18.2192

          k = 0.0909 0.1818 0.2727 (  4273 PWs)   bands (ev):

   -70.5606 -40.6713 -36.6375 -36.6283 -36.6212 -16.9550 -16.8710 -16.8097
    10.9996  13.5378  13.7952  14.8791  14.9871  15.4043  17.1468  17.4074
    17.7085  17.9124

          k = 0.0909 0.1818 0.3636 (  4272 PWs)   bands (ev):

   -70.5600 -40.6647 -36.6447 -36.6283 -36.6205 -17.0234 -16.8645 -16.8041
    11.7790  13.5315  14.0919  14.8089  14.9735  15.2416  16.9379  17.0835
    17.5741  18.1408

          k = 0.0909 0.1818 0.4545 (  4287 PWs)   bands (ev):

   -70.5596 -40.6608 -36.6490 -36.6283 -36.6201 -17.0639 -16.8605 -16.8007
    12.5206  13.2332  14.3163  14.7392  15.0693  15.1771  16.7672  16.8257
    17.3870  18.4845

          k = 0.0909 0.2727 0.2727 (  4278 PWs)   bands (ev):

   -70.5600 -40.6634 -36.6397 -36.6354 -36.6204 -16.9515 -16.9385 -16.8031
    11.5428  13.5136  14.1859  14.6959  14.9191  15.1336  17.1998  17.4213
    17.5568  18.1332

          k = 0.0909 0.2727 0.3636 (  4287 PWs)   bands (ev):

   -70.5593 -40.6561 -36.6460 -36.6376 -36.6197 -17.0123 -16.9360 -16.7971
    12.1233  13.3794  14.5219  14.5921  14.9254  15.0352  16.9950  17.3357
    17.6198  18.5019

          k = 0.0909 0.2727 0.4545 (  4290 PWs)   bands (ev):

   -70.5590 -40.6517 -36.6505 -36.6382 -36.6193 -17.0515 -16.9311 -16.7935
    12.5798  13.1614  14.5663  14.6002  14.8615  15.3745  16.7204  17.3135
    17.5471  18.9390

          k = 0.0909 0.3636 0.3636 (  4291 PWs)   bands (ev):

   -70.5587 -40.6481 -36.6480 -36.6454 -36.6189 -17.0053 -16.9978 -16.7907
    12.3837  13.1765  14.4346  14.6407  15.0797  15.3326  16.9984  17.4474
    17.6739  18.9051

          k = 0.0909 0.3636 0.4545 (  4299 PWs)   bands (ev):

   -70.5584 -40.6434 -36.6519 -36.6473 -36.6185 -17.0401 -16.9953 -16.7869
    12.5123  13.0333  14.3848  14.4592  15.3755  15.9147  16.7634  17.4088
    17.7562  19.1225

          k = 0.0909 0.4545 0.4545 (  4291 PWs)   bands (ev):

   -70.5580 -40.6384 -36.6529 -36.6525 -36.6180 -17.0338 -17.0327 -16.7829
    12.4375  12.9521  14.2847  14.3110  16.0393  16.3655  16.9161  16.9908
    17.9410  19.3278

          k = 0.1818 0.1818 0.1818 (  4268 PWs)   bands (ev):

   -70.5608 -40.6727 -36.6299 -36.6299 -36.6259 -16.8814 -16.8693 -16.8693
    10.7597  13.6206  13.6206  14.9042  14.9042  15.3267  17.4290  17.4290
    17.7576  18.4377

          k = 0.1818 0.1818 0.2727 (  4291 PWs)   bands (ev):

   -70.5601 -40.6652 -36.6376 -36.6289 -36.6271 -16.9483 -16.8677 -16.8639
    11.3816  13.8140  13.8452  14.7780  14.7812  15.0448  17.3162  17.4818
    17.8859  18.0311

          k = 0.1818 0.1818 0.3636 (  4291 PWs)   bands (ev):

   -70.5595 -40.6583 -36.6451 -36.6279 -36.6276 -17.0157 -16.8595 -16.8589
    12.1013  13.7802  14.0307  14.6494  14.8010  14.9820  17.1983  17.2233
    17.4556  18.5362

          k = 0.1818 0.1818 0.4545 (  4295 PWs)   bands (ev):

   -70.5591 -40.6542 -36.6497 -36.6279 -36.6273 -17.0556 -16.8560 -16.8546
    12.7510  13.4337  14.2103  14.5311  14.8987  15.1300  16.8388  17.1361
    17.2064  18.8824

          k = 0.1818 0.2727 0.2727 (  4294 PWs)   bands (ev):

   -70.5595 -40.6572 -36.6388 -36.6358 -36.6274 -16.9439 -16.9343 -16.8587
    11.9296  13.8200  14.2072  14.6021  14.6674  14.7350  17.3195  17.4833
    17.8038  18.4598

          k = 0.1818 0.2727 0.3636 (  4286 PWs)   bands (ev):

   -70.5588 -40.6498 -36.6458 -36.6372 -36.6270 -17.0057 -16.9308 -16.8523
    12.4966  13.6798  14.3505  14.4917  14.6969  14.8084  17.0970  17.3238
    17.7071  18.7522

          k = 0.1818 0.2727 0.4545 (  4297 PWs)   bands (ev):

   -70.5585 -40.6454 -36.6505 -36.6374 -36.6267 -17.0447 -16.9261 -16.8484
    12.9084  13.4516  14.3427  14.4311  14.7634  15.1917  16.7551  17.1813
    17.6265  18.9485

          k = 0.1818 0.3636 0.3636 (  4282 PWs)   bands (ev):

   -70.5582 -40.6420 -36.6470 -36.6452 -36.6263 -16.9989 -16.9934 -16.8459
    12.7731  13.4738  14.3618  14.4607  14.9564  14.9579  16.9817  17.1850
    17.9445  18.9013

          k = 0.1818 0.3636 0.4545 (  4293 PWs)   bands (ev):

   -70.5579 -40.6374 -36.6513 -36.6464 -36.6258 -17.0347 -16.9906 -16.8420
    12.8754  13.3422  14.3102  14.3507  15.1404  15.5286  16.7098  17.0480
    18.0126  19.1179

          k = 0.1818 0.4545 0.4545 (  4288 PWs)   bands (ev):

   -70.5575 -40.6326 -36.6519 -36.6517 -36.6253 -17.0291 -17.0284 -16.8382
    12.8034  13.2653  14.2313  14.2498  15.7708  15.8480  16.6067  16.7795
    18.1798  19.3829

          k = 0.2727 0.2727 0.2727 (  4317 PWs)   bands (ev):

   -70.5588 -40.6491 -36.6377 -36.6377 -36.6353 -16.9362 -16.9287 -16.9287
    12.4779  14.2272  14.2272  14.2964  14.4850  14.4850  17.3220  17.3220
    18.2302  18.2302

          k = 0.2727 0.2727 0.3636 (  4293 PWs)   bands (ev):

   -70.5582 -40.6416 -36.6455 -36.6366 -36.6364 -16.9971 -16.9243 -16.9235
    12.9995  13.9281  14.2359  14.3826  14.4710  14.6674  17.0800  17.1332
    18.0933  18.6771

          k = 0.2727 0.2727 0.4545 (  4291 PWs)   bands (ev):

   -70.5578 -40.6371 -36.6505 -36.6367 -36.6360 -17.0358 -16.9205 -16.9188
    13.2862  13.6932  14.2363  14.3232  14.6064  15.0487  16.7042  17.0196
    18.0448  18.9809

          k = 0.2727 0.3636 0.3636 (  4299 PWs)   bands (ev):

   -70.5576 -40.6340 -36.6458 -36.6449 -36.6358 -16.9906 -16.9877 -16.9175
    13.3502  13.7952  14.2798  14.3479  14.5402  14.7646  16.9346  16.9379
    18.3666  18.8590

          k = 0.2727 0.3636 0.4545 (  4298 PWs)   bands (ev):

   -70.5572 -40.6295 -36.6506 -36.6453 -36.6354 -17.0277 -16.9845 -16.9137
    13.3984  13.7032  14.2421  14.2781  14.7810  15.1250  16.6198  16.8624
    18.4225  19.1512

          k = 0.2727 0.4545 0.4545 (  4294 PWs)   bands (ev):

   -70.5569 -40.6250 -36.6506 -36.6505 -36.6348 -17.0230 -17.0226 -16.9101
    13.3492  13.6642  14.1795  14.2011  15.2596  15.2930  16.4681  16.7096
    18.5803  19.4165

          k = 0.3636 0.3636 0.3636 (  4305 PWs)   bands (ev):

   -70.5570 -40.6266 -36.6447 -36.6447 -36.6446 -16.9832 -16.9825 -16.9825
    13.8087  14.0071  14.2295  14.2295  14.5470  14.5470  16.7774  16.7774
    18.8644  18.8644

          k = 0.3636 0.3636 0.4545 (  4300 PWs)   bands (ev):

   -70.5566 -40.6223 -36.6499 -36.6445 -36.6440 -17.0212 -16.9794 -16.9784
    13.8095  13.9422  14.2400  14.3732  14.4877  14.8571  16.5374  16.7083
    18.8759  19.2348

          k = 0.3636 0.4545 0.4545 (  4291 PWs)   bands (ev):

   -70.5563 -40.6180 -36.6495 -36.6495 -36.6436 -17.0174 -17.0174 -16.9755
    13.9084  14.0161  14.1697  14.2537  14.7858  14.8398  16.4325  16.5833
    19.0752  19.4427

          k = 0.4545 0.4545 0.4545 (  4284 PWs)   bands (ev):

   -70.5559 -40.6138 -36.6489 -36.6488 -36.6488 -17.0142 -17.0142 -17.0140
    14.1077  14.2266  14.2266  14.5238  14.5273  14.5273  16.4237  16.4237
    19.4575  19.4575

     the Fermi energy is    16.2019 ev

!    total energy              =    -448.58364610 Ry
     estimated scf accuracy    <          3.9E-10 Ry
     smearing contrib. (-TS)   =       0.00006534 Ry
     internal energy E=F+TS    =    -448.58371144 Ry

     The total energy is F=E-TS. E is the sum of the following terms:
     one-electron contribution =    -160.70521641 Ry
     hartree contribution      =      94.81908780 Ry
     xc contribution           =     -52.76963537 Ry
     ewald contribution        =    -253.77570988 Ry
     one-center paw contrib.   =     -76.15223757 Ry

     convergence has been achieved in  55 iterations

     negative rho (up, down):  9.739E-04 0.000E+00

     Forces acting on atoms (cartesian axes, Ry/au):

     atom    1 type  1   force =     0.00000000    0.00000000    0.00000000
     atom    2 type  2   force =     0.00000000    0.00000000    0.00000000

     Total force =     0.000000     Total SCF correction =     0.000000


     Computing stress (Cartesian axis) and pressure


     negative rho (up, down):  9.739E-04 0.000E+00
          total   stress  (Ry/bohr**3)                   (kbar)     P=      -95.13
  -0.00064665   0.00000000   0.00000000          -95.13        0.00        0.00
   0.00000000  -0.00064665   0.00000000            0.00      -95.13        0.00
   0.00000000   0.00000000  -0.00064665            0.00        0.00      -95.13


     Writing all to output data dir ./TiFe.save/ :
     XML data file, charge density, pseudopotentials, collected wavefunctions

     init_run     :      1.09s CPU      1.13s WALL (       1 calls)
     electrons    :     84.35s CPU     88.13s WALL (       1 calls)
     forces       :      0.25s CPU      0.28s WALL (       1 calls)
     stress       :      1.50s CPU      1.57s WALL (       1 calls)

     Called by init_run:
     wfcinit      :      0.45s CPU      0.46s WALL (       1 calls)
     potinit      :      0.20s CPU      0.21s WALL (       1 calls)
     hinit0       :      0.26s CPU      0.26s WALL (       1 calls)

     Called by electrons:
     c_bands      :     58.21s CPU     59.34s WALL (      55 calls)
     sum_band     :     14.98s CPU     16.38s WALL (      55 calls)
     v_of_rho     :      1.25s CPU      1.36s WALL (      56 calls)
     newd         :      6.83s CPU      7.86s WALL (      56 calls)
     PAW_pot      :      3.00s CPU      3.08s WALL (      56 calls)
     mix_rho      :      0.15s CPU      0.17s WALL (      55 calls)

     Called by c_bands:
     init_us_2    :      1.02s CPU      1.05s WALL (    6328 calls)
     cegterg      :     56.35s CPU     57.39s WALL (    3080 calls)

     Called by *egterg:
     cdiaghg      :      5.27s CPU      5.38s WALL (   14309 calls)
     h_psi        :     45.00s CPU     45.84s WALL (   14365 calls)
     s_psi        :      0.85s CPU      0.87s WALL (   14365 calls)
     g_psi        :      0.20s CPU      0.20s WALL (   11229 calls)

     Called by h_psi:
     h_psi:calbec :      1.78s CPU      1.82s WALL (   14365 calls)
     vloc_psi     :     42.13s CPU     42.90s WALL (   14365 calls)
     add_vuspsi   :      0.90s CPU      0.94s WALL (   14365 calls)

     General routines
     calbec       :      2.33s CPU      2.38s WALL (   18397 calls)
     fft          :      0.83s CPU      0.98s WALL (     751 calls)
     ffts         :      0.13s CPU      0.13s WALL (     111 calls)
     fftw         :     42.01s CPU     42.76s WALL (  374930 calls)
     interpolate  :      0.17s CPU      0.19s WALL (      56 calls)

     Parallel routines

     PWSCF        :     87.48s CPU     91.58s WALL


   This run was terminated on:   0:47:54  25Oct2025            

=------------------------------------------------------------------------------=
   JOB DONE.
=------------------------------------------------------------------------------=
