
     Program PWSCF v.7.4 starts on 25Oct2025 at  0:43:18 

     This program is part of the open-source Quantum ESPRESSO suite
     for quantum simulation of materials; please cite
         "P. Giannozzi et al., J. Phys.:Condens. Matter 21 395502 (2009);
         "P. Giannozzi et al., J. Phys.:Condens. Matter 29 465901 (2017);
         "P. Giannozzi et al., J. Chem. Phys. 152 154105 (2020);
          URL http://www.quantum-espresso.org", 
     in publications or presentations arising from this work. More details at
     http://www.quantum-espresso.org/quote

     Parallel version (MPI & OpenMP), running on       8 processor cores
     Number of MPI processes:                 8
     Threads/MPI process:                     1

     MPI processes distributed on     1 nodes
     210393 MiB available memory on the printing compute node when the environment starts

     Reading input from TiFe_16.in

     Current dimensions of program PWSCF are:
     Max number of different atomic species (ntypx) = 10
     Max number of k-points (npk) =  40000
     Max angular momentum in pseudopotentials (lmaxx) =  4
     file Fe.pbe-spn-kjpaw_psl.0.2.1.UPF: wavefunction(s)  3D renormalized

     IMPORTANT: XC functional enforced from input :
     Exchange-correlation= PBE
                           (   1   4   3   4   0   0   0)
     Any further DFT definition will be discarded
     Please, verify this is what you really want

     Message from routine setup:
     using ibrav=0 with symmetry is DISCOURAGED, use correct ibrav instead

     R & G space division:  proc/nbgrp/npool/nimage =       8
     Subspace diagonalization in iterative solution of the eigenvalue problem:
     a serial algorithm will be used


     Parallelization info
     --------------------
     sticks:   dense  smooth     PW     G-vecs:    dense   smooth      PW
     Min         546     155     44                27206     4169     646
     Max         547     156     45                27209     4172     649
     Sum        4373    1245    357               217663    33371    5185

     Using Slab Decomposition



     bravais-lattice index     =            0
     lattice parameter (alat)  =       5.6289  a.u.
     unit-cell volume          =     178.3480 (a.u.)^3
     number of atoms/cell      =            2
     number of atomic types    =            2
     number of electrons       =        28.00
     number of Kohn-Sham states=           18
     kinetic-energy cutoff     =     124.0000  Ry
     charge density cutoff     =    1736.0000  Ry
     scf convergence threshold =      1.0E-08
     mixing beta               =       0.7000
     number of iterations used =            8  plain     mixing
     Exchange-correlation= PBE
                           (   1   4   3   4   0   0   0)

     celldm(1)=   5.628889  celldm(2)=   0.000000  celldm(3)=   0.000000
     celldm(4)=   0.000000  celldm(5)=   0.000000  celldm(6)=   0.000000

     crystal axes: (cart. coord. in units of alat)
               a(1) = (   1.000000   0.000000   0.000000 )  
               a(2) = (   0.000000   1.000000   0.000000 )  
               a(3) = (   0.000000   0.000000   1.000000 )  

     reciprocal axes: (cart. coord. in units 2 pi/alat)
               b(1) = (  1.000000  0.000000  0.000000 )  
               b(2) = (  0.000000  1.000000  0.000000 )  
               b(3) = (  0.000000  0.000000  1.000000 )  


     PseudoPot. # 1 for Fe read from file:
     ../pseudos/Fe.pbe-spn-kjpaw_psl.0.2.1.UPF
     MD5 check sum: e86618425769142926afa95317d90200
     Pseudo is Projector augmented-wave + core cor, Zval = 16.0
     Generated using "atomic" code by A. Dal Corso  v.5.0.99 svn rev. 10869
     Shape of augmentation charge: PSQ
     Using radial grid of 1191 points,  6 beta functions with: 
                l(1) =   0
                l(2) =   0
                l(3) =   1
                l(4) =   1
                l(5) =   2
                l(6) =   2
     Q(r) pseudized with 0 coefficients 


     PseudoPot. # 2 for Ti read from file:
     ../pseudos/ti_pbe_v1.4.uspp.F.UPF
     MD5 check sum: 88a00a6731bd790ddea75d31a80cb452
     Pseudo is Ultrasoft + core correction, Zval = 12.0
     Generated by new atomic code, or converted to UPF format
     Using radial grid of  851 points,  6 beta functions with: 
                l(1) =   0
                l(2) =   0
                l(3) =   1
                l(4) =   1
                l(5) =   2
                l(6) =   2
     Q(r) pseudized with  6 coefficients,  rinner =    1.000   1.000   1.000
                                                       1.000   1.000

     atomic species   valence    mass     pseudopotential
     Fe               16.00    55.84500     Fe( 1.00)
     Ti               12.00    47.86700     Ti( 1.00)

     48 Sym. Ops., with inversion, found



   Cartesian axes

     site n.     atom                  positions (alat units)
         1        Fe     tau(   1) = (   0.5000000   0.5000000   0.5000000  )
         2        Ti     tau(   2) = (   0.0000000   0.0000000   0.0000000  )

     number of k points=    56  Marzari-Vanderbilt smearing, width (Ry)=  0.0050
                       cart. coord. in units 2pi/alat
        k(    1) = (   0.0000000   0.0000000   0.0000000), wk =   0.0015026
        k(    2) = (   0.0000000   0.0000000   0.0909091), wk =   0.0090158
        k(    3) = (   0.0000000   0.0000000   0.1818182), wk =   0.0090158
        k(    4) = (   0.0000000   0.0000000   0.2727273), wk =   0.0090158
        k(    5) = (   0.0000000   0.0000000   0.3636364), wk =   0.0090158
        k(    6) = (   0.0000000   0.0000000   0.4545455), wk =   0.0090158
        k(    7) = (   0.0000000   0.0909091   0.0909091), wk =   0.0180316
        k(    8) = (   0.0000000   0.0909091   0.1818182), wk =   0.0360631
        k(    9) = (   0.0000000   0.0909091   0.2727273), wk =   0.0360631
        k(   10) = (   0.0000000   0.0909091   0.3636364), wk =   0.0360631
        k(   11) = (   0.0000000   0.0909091   0.4545455), wk =   0.0360631
        k(   12) = (   0.0000000   0.1818182   0.1818182), wk =   0.0180316
        k(   13) = (   0.0000000   0.1818182   0.2727273), wk =   0.0360631
        k(   14) = (   0.0000000   0.1818182   0.3636364), wk =   0.0360631
        k(   15) = (   0.0000000   0.1818182   0.4545455), wk =   0.0360631
        k(   16) = (   0.0000000   0.2727273   0.2727273), wk =   0.0180316
        k(   17) = (   0.0000000   0.2727273   0.3636364), wk =   0.0360631
        k(   18) = (   0.0000000   0.2727273   0.4545455), wk =   0.0360631
        k(   19) = (   0.0000000   0.3636364   0.3636364), wk =   0.0180316
        k(   20) = (   0.0000000   0.3636364   0.4545455), wk =   0.0360631
        k(   21) = (   0.0000000   0.4545455   0.4545455), wk =   0.0180316
        k(   22) = (   0.0909091   0.0909091   0.0909091), wk =   0.0120210
        k(   23) = (   0.0909091   0.0909091   0.1818182), wk =   0.0360631
        k(   24) = (   0.0909091   0.0909091   0.2727273), wk =   0.0360631
        k(   25) = (   0.0909091   0.0909091   0.3636364), wk =   0.0360631
        k(   26) = (   0.0909091   0.0909091   0.4545455), wk =   0.0360631
        k(   27) = (   0.0909091   0.1818182   0.1818182), wk =   0.0360631
        k(   28) = (   0.0909091   0.1818182   0.2727273), wk =   0.0721262
        k(   29) = (   0.0909091   0.1818182   0.3636364), wk =   0.0721262
        k(   30) = (   0.0909091   0.1818182   0.4545455), wk =   0.0721262
        k(   31) = (   0.0909091   0.2727273   0.2727273), wk =   0.0360631
        k(   32) = (   0.0909091   0.2727273   0.3636364), wk =   0.0721262
        k(   33) = (   0.0909091   0.2727273   0.4545455), wk =   0.0721262
        k(   34) = (   0.0909091   0.3636364   0.3636364), wk =   0.0360631
        k(   35) = (   0.0909091   0.3636364   0.4545455), wk =   0.0721262
        k(   36) = (   0.0909091   0.4545455   0.4545455), wk =   0.0360631
        k(   37) = (   0.1818182   0.1818182   0.1818182), wk =   0.0120210
        k(   38) = (   0.1818182   0.1818182   0.2727273), wk =   0.0360631
        k(   39) = (   0.1818182   0.1818182   0.3636364), wk =   0.0360631
        k(   40) = (   0.1818182   0.1818182   0.4545455), wk =   0.0360631
        k(   41) = (   0.1818182   0.2727273   0.2727273), wk =   0.0360631
        k(   42) = (   0.1818182   0.2727273   0.3636364), wk =   0.0721262
        k(   43) = (   0.1818182   0.2727273   0.4545455), wk =   0.0721262
        k(   44) = (   0.1818182   0.3636364   0.3636364), wk =   0.0360631
        k(   45) = (   0.1818182   0.3636364   0.4545455), wk =   0.0721262
        k(   46) = (   0.1818182   0.4545455   0.4545455), wk =   0.0360631
        k(   47) = (   0.2727273   0.2727273   0.2727273), wk =   0.0120210
        k(   48) = (   0.2727273   0.2727273   0.3636364), wk =   0.0360631
        k(   49) = (   0.2727273   0.2727273   0.4545455), wk =   0.0360631
        k(   50) = (   0.2727273   0.3636364   0.3636364), wk =   0.0360631
        k(   51) = (   0.2727273   0.3636364   0.4545455), wk =   0.0721262
        k(   52) = (   0.2727273   0.4545455   0.4545455), wk =   0.0360631
        k(   53) = (   0.3636364   0.3636364   0.3636364), wk =   0.0120210
        k(   54) = (   0.3636364   0.3636364   0.4545455), wk =   0.0360631
        k(   55) = (   0.3636364   0.4545455   0.4545455), wk =   0.0360631
        k(   56) = (   0.4545455   0.4545455   0.4545455), wk =   0.0120210

     Dense  grid:   217663 G-vectors     FFT dimensions: (  75,  75,  75)

     Smooth grid:    33371 G-vectors     FFT dimensions: (  40,  40,  40)

     Estimated max dynamical RAM per process >     114.36 MB

     Estimated total dynamical RAM >     914.89 MB

     Check: negative core charge=   -0.000001

     Initial potential from superposition of free atoms

     starting charge      26.9995, renormalised to      28.0000

     negative rho (up, down):  1.366E-03 0.000E+00
     Starting wfcs are   23 randomized atomic wfcs
     Checking if some PAW data can be deallocated... 

     total cpu time spent up to now is        1.4 secs

     per-process dynamical memory:   135.3 Mb

     Self-consistent Calculation

     iteration #  1     ecut=   124.00 Ry     beta= 0.70
     Davidson diagonalization with overlap
     ethr =  1.00E-02,  avg # of iterations =  2.2

     negative rho (up, down):  1.003E-04 0.000E+00

     total cpu time spent up to now is        2.5 secs

     total energy              =    -434.11912571 Ry
     estimated scf accuracy    <      18.39795271 Ry

     iteration #  2     ecut=   124.00 Ry     beta= 0.70
     Davidson diagonalization with overlap
     ethr =  1.00E-02,  avg # of iterations =  6.1

     negative rho (up, down):  1.849E-05 0.000E+00

     total cpu time spent up to now is        4.2 secs

     total energy              =    -448.40948569 Ry
     estimated scf accuracy    <      69.53494214 Ry

     iteration #  3     ecut=   124.00 Ry     beta= 0.70
     Davidson diagonalization with overlap
     ethr =  1.00E-02,  avg # of iterations =  3.1

     negative rho (up, down):  1.904E-04 0.000E+00

     total cpu time spent up to now is        5.5 secs

     total energy              =    -448.71105066 Ry
     estimated scf accuracy    <      17.51498244 Ry

     iteration #  4     ecut=   124.00 Ry     beta= 0.70
     Davidson diagonalization with overlap
     ethr =  1.00E-02,  avg # of iterations =  2.1

     negative rho (up, down):  2.605E-04 0.000E+00

     total cpu time spent up to now is        6.6 secs

     total energy              =    -449.14245919 Ry
     estimated scf accuracy    <       5.35551292 Ry

     iteration #  5     ecut=   124.00 Ry     beta= 0.70
     Davidson diagonalization with overlap
     ethr =  1.00E-02,  avg # of iterations =  1.1

     negative rho (up, down):  5.252E-04 0.000E+00

     total cpu time spent up to now is        7.6 secs

     total energy              =    -448.89057047 Ry
     estimated scf accuracy    <       4.61853947 Ry

     iteration #  6     ecut=   124.00 Ry     beta= 0.70
     Davidson diagonalization with overlap
     ethr =  1.00E-02,  avg # of iterations =  1.1

     negative rho (up, down):  9.789E-04 0.000E+00

     total cpu time spent up to now is        8.5 secs

     total energy              =    -448.13723441 Ry
     estimated scf accuracy    <       3.99794406 Ry

     iteration #  7     ecut=   124.00 Ry     beta= 0.70
     Davidson diagonalization with overlap
     ethr =  1.00E-02,  avg # of iterations =  2.1

     negative rho (up, down):  1.113E-03 0.000E+00

     total cpu time spent up to now is        9.5 secs

     total energy              =    -448.67542154 Ry
     estimated scf accuracy    <       0.57199551 Ry

     iteration #  8     ecut=   124.00 Ry     beta= 0.70
     Davidson diagonalization with overlap
     ethr =  2.04E-03,  avg # of iterations =  4.7

     negative rho (up, down):  5.523E-04 0.000E+00

     total cpu time spent up to now is       10.7 secs

     total energy              =    -447.75315912 Ry
     estimated scf accuracy    <       6.44312913 Ry

     iteration #  9     ecut=   124.00 Ry     beta= 0.70
     Davidson diagonalization with overlap
     ethr =  2.04E-03,  avg # of iterations =  4.4

     negative rho (up, down):  5.439E-04 0.000E+00

     total cpu time spent up to now is       12.0 secs

     total energy              =    -448.64656943 Ry
     estimated scf accuracy    <       2.54302007 Ry

     iteration # 10     ecut=   124.00 Ry     beta= 0.70
     Davidson diagonalization with overlap
     ethr =  2.04E-03,  avg # of iterations =  1.0

     negative rho (up, down):  6.505E-04 0.000E+00

     total cpu time spent up to now is       13.0 secs

     total energy              =    -448.59928572 Ry
     estimated scf accuracy    <       1.12524078 Ry

     iteration # 11     ecut=   124.00 Ry     beta= 0.70
     Davidson diagonalization with overlap
     ethr =  2.04E-03,  avg # of iterations =  1.3

     negative rho (up, down):  5.269E-04 0.000E+00

     total cpu time spent up to now is       13.9 secs

     total energy              =    -448.61176494 Ry
     estimated scf accuracy    <       0.37549423 Ry

     iteration # 12     ecut=   124.00 Ry     beta= 0.70
     Davidson diagonalization with overlap
     ethr =  1.34E-03,  avg # of iterations =  1.1

     negative rho (up, down):  3.284E-04 0.000E+00

     total cpu time spent up to now is       14.9 secs

     total energy              =    -448.71639880 Ry
     estimated scf accuracy    <       0.17407717 Ry

     iteration # 13     ecut=   124.00 Ry     beta= 0.70
     Davidson diagonalization with overlap
     ethr =  6.22E-04,  avg # of iterations =  2.6

     negative rho (up, down):  3.074E-04 0.000E+00

     total cpu time spent up to now is       16.0 secs

     total energy              =    -448.79476803 Ry
     estimated scf accuracy    <       1.54915488 Ry

     iteration # 14     ecut=   124.00 Ry     beta= 0.70
     Davidson diagonalization with overlap
     ethr =  6.22E-04,  avg # of iterations =  1.0

     negative rho (up, down):  2.903E-04 0.000E+00

     total cpu time spent up to now is       16.9 secs

     total energy              =    -448.82349384 Ry
     estimated scf accuracy    <       1.59297211 Ry

     iteration # 15     ecut=   124.00 Ry     beta= 0.70
     Davidson diagonalization with overlap
     ethr =  6.22E-04,  avg # of iterations =  1.0

     negative rho (up, down):  1.883E-04 0.000E+00

     total cpu time spent up to now is       17.9 secs

     total energy              =    -448.87642803 Ry
     estimated scf accuracy    <       1.75291793 Ry

     iteration # 16     ecut=   124.00 Ry     beta= 0.70
     Davidson diagonalization with overlap
     ethr =  6.22E-04,  avg # of iterations =  1.0

     negative rho (up, down):  5.833E-04 0.000E+00

     total cpu time spent up to now is       18.9 secs

     total energy              =    -448.60859628 Ry
     estimated scf accuracy    <       2.07501654 Ry

     iteration # 17     ecut=   124.00 Ry     beta= 0.70
     Davidson diagonalization with overlap
     ethr =  6.22E-04,  avg # of iterations =  2.5

     negative rho (up, down):  1.338E-03 0.000E+00

     total cpu time spent up to now is       20.0 secs

     total energy              =    -448.44365887 Ry
     estimated scf accuracy    <       0.65869540 Ry

     iteration # 18     ecut=   124.00 Ry     beta= 0.70
     Davidson diagonalization with overlap
     ethr =  6.22E-04,  avg # of iterations =  4.9

     negative rho (up, down):  6.898E-04 0.000E+00

     total cpu time spent up to now is       21.4 secs

     total energy              =    -448.38594529 Ry
     estimated scf accuracy    <       1.78449142 Ry

     iteration # 19     ecut=   124.00 Ry     beta= 0.70
     Davidson diagonalization with overlap
     ethr =  6.22E-04,  avg # of iterations =  4.4

     negative rho (up, down):  6.993E-04 0.000E+00

     total cpu time spent up to now is       22.6 secs

     total energy              =    -448.61174556 Ry
     estimated scf accuracy    <       0.35968063 Ry

     iteration # 20     ecut=   124.00 Ry     beta= 0.70
     Davidson diagonalization with overlap
     ethr =  6.22E-04,  avg # of iterations =  1.0

     negative rho (up, down):  7.833E-04 0.000E+00

     total cpu time spent up to now is       23.6 secs

     total energy              =    -448.59450344 Ry
     estimated scf accuracy    <       0.30941534 Ry

     iteration # 21     ecut=   124.00 Ry     beta= 0.70
     Davidson diagonalization with overlap
     ethr =  6.22E-04,  avg # of iterations =  1.0

     negative rho (up, down):  8.576E-04 0.000E+00

     total cpu time spent up to now is       24.5 secs

     total energy              =    -448.58622098 Ry
     estimated scf accuracy    <       0.14928017 Ry

     iteration # 22     ecut=   124.00 Ry     beta= 0.70
     Davidson diagonalization with overlap
     ethr =  5.33E-04,  avg # of iterations =  1.0

     negative rho (up, down):  8.631E-04 0.000E+00

     total cpu time spent up to now is       25.5 secs

     total energy              =    -448.58987343 Ry
     estimated scf accuracy    <       0.04456221 Ry

     iteration # 23     ecut=   124.00 Ry     beta= 0.70
     Davidson diagonalization with overlap
     ethr =  1.59E-04,  avg # of iterations =  1.0

     negative rho (up, down):  9.740E-04 0.000E+00

     total cpu time spent up to now is       26.5 secs

     total energy              =    -448.58324604 Ry
     estimated scf accuracy    <       0.05641528 Ry

     iteration # 24     ecut=   124.00 Ry     beta= 0.70
     Davidson diagonalization with overlap
     ethr =  1.59E-04,  avg # of iterations =  1.7

     negative rho (up, down):  9.702E-04 0.000E+00

     total cpu time spent up to now is       27.5 secs

     WARNING: integrated charge=    28.00062398, expected=    28.00000000

     total energy              =    -448.58434391 Ry
     estimated scf accuracy    <       0.00228667 Ry

     iteration # 25     ecut=   124.00 Ry     beta= 0.70
     Davidson diagonalization with overlap
     ethr =  8.17E-06,  avg # of iterations =  3.6

     negative rho (up, down):  9.963E-04 0.000E+00

     total cpu time spent up to now is       28.6 secs

     WARNING: integrated charge=    28.00052803, expected=    28.00000000

     total energy              =    -448.58368100 Ry
     estimated scf accuracy    <       0.00054414 Ry

     iteration # 26     ecut=   124.00 Ry     beta= 0.70
     Davidson diagonalization with overlap
     ethr =  1.94E-06,  avg # of iterations =  4.2

     negative rho (up, down):  9.806E-04 0.000E+00

     total cpu time spent up to now is       29.9 secs

     WARNING: integrated charge=    28.00625579, expected=    28.00000000

     total energy              =    -448.58599120 Ry
     estimated scf accuracy    <       0.00258748 Ry

     iteration # 27     ecut=   124.00 Ry     beta= 0.70
     Davidson diagonalization with overlap
     ethr =  1.94E-06,  avg # of iterations =  3.8

     negative rho (up, down):  9.756E-04 0.000E+00

     total cpu time spent up to now is       31.1 secs

     WARNING: integrated charge=    28.00825006, expected=    28.00000000

     total energy              =    -448.58327636 Ry
     estimated scf accuracy    <       0.00004969 Ry

     iteration # 28     ecut=   124.00 Ry     beta= 0.70
     Davidson diagonalization with overlap
     ethr =  1.77E-07,  avg # of iterations =  4.2

     negative rho (up, down):  9.744E-04 0.000E+00

     total cpu time spent up to now is       32.3 secs

     WARNING: integrated charge=    28.00504171, expected=    28.00000000

     total energy              =    -448.58461228 Ry
     estimated scf accuracy    <       0.00033585 Ry

     iteration # 29     ecut=   124.00 Ry     beta= 0.70
     Davidson diagonalization with overlap
     ethr =  1.77E-07,  avg # of iterations =  2.0

     negative rho (up, down):  9.731E-04 0.000E+00

     total cpu time spent up to now is       33.3 secs

     WARNING: integrated charge=    28.00411975, expected=    28.00000000

     total energy              =    -448.58382352 Ry
     estimated scf accuracy    <       0.00011674 Ry

     iteration # 30     ecut=   124.00 Ry     beta= 0.70
     Davidson diagonalization with overlap
     ethr =  1.77E-07,  avg # of iterations =  1.0

     negative rho (up, down):  9.699E-04 0.000E+00

     total cpu time spent up to now is       34.3 secs

     WARNING: integrated charge=    28.00247928, expected=    28.00000000

     total energy              =    -448.58369283 Ry
     estimated scf accuracy    <       0.00008441 Ry

     iteration # 31     ecut=   124.00 Ry     beta= 0.70
     Davidson diagonalization with overlap
     ethr =  1.77E-07,  avg # of iterations =  2.7

     negative rho (up, down):  9.702E-04 0.000E+00

     total cpu time spent up to now is       35.3 secs

     WARNING: integrated charge=    28.00275683, expected=    28.00000000

     total energy              =    -448.58288556 Ry
     estimated scf accuracy    <       0.00000188 Ry

     iteration # 32     ecut=   124.00 Ry     beta= 0.70
     Davidson diagonalization with overlap
     ethr =  6.73E-09,  avg # of iterations =  3.4

     negative rho (up, down):  9.704E-04 0.000E+00

     total cpu time spent up to now is       36.4 secs

     WARNING: integrated charge=    28.00258411, expected=    28.00000000

     total energy              =    -448.58299395 Ry
     estimated scf accuracy    <       0.00000019 Ry

     iteration # 33     ecut=   124.00 Ry     beta= 0.70
     Davidson diagonalization with overlap
     ethr =  6.74E-10,  avg # of iterations =  4.4

     negative rho (up, down):  9.704E-04 0.000E+00

     total cpu time spent up to now is       37.7 secs

     WARNING: integrated charge=    28.00262609, expected=    28.00000000

     total energy              =    -448.58296492 Ry
     estimated scf accuracy    <       0.00000003 Ry

     iteration # 34     ecut=   124.00 Ry     beta= 0.70
     Davidson diagonalization with overlap
     ethr =  1.19E-10,  avg # of iterations =  2.3

     negative rho (up, down):  9.705E-04 0.000E+00

     total cpu time spent up to now is       38.7 secs

     End of self-consistent calculation

          k = 0.0000 0.0000 0.0000 (  4139 PWs)   bands (ev):

   -69.9977 -40.0457 -36.0574 -36.0574 -36.0574 -16.1508 -16.1508 -16.1508
     9.4678  13.2597  13.2597  15.8922  15.8922  15.8922  18.1217  18.1217
    19.9551  19.9551

          k = 0.0000 0.0000 0.0909 (  4120 PWs)   bands (ev):

   -69.9975 -40.0438 -36.0597 -36.0571 -36.0571 -16.1761 -16.1492 -16.1492
     9.6344  13.3392  13.3418  15.8799  15.8799  15.9280  18.0233  18.1583
    19.7194  19.7194

          k = 0.0000 0.0000 0.1818 (  4140 PWs)   bands (ev):

   -69.9969 -40.0387 -36.0658 -36.0563 -36.0563 -16.2435 -16.1450 -16.1450
    10.1186  13.5529  13.5717  15.8515  15.8515  16.0285  17.7386  18.2394
    19.1695  19.1695

          k = 0.0000 0.0000 0.2727 (  4124 PWs)   bands (ev):

   -69.9961 -40.0320 -36.0736 -36.0551 -36.0551 -16.3308 -16.1395 -16.1395
    10.8735  13.7860  13.9370  15.8263  15.8263  16.1711  17.3018  18.2612
    18.5599  18.5599

          k = 0.0000 0.0000 0.3636 (  4136 PWs)   bands (ev):

   -69.9954 -40.0259 -36.0808 -36.0541 -36.0541 -16.4102 -16.1344 -16.1344
    11.8118  13.8597  14.3882  15.8196  15.8196  16.3161  16.7819  18.0610
    18.0610  18.0632

          k = 0.0000 0.0000 0.4545 (  4144 PWs)   bands (ev):

   -69.9950 -40.0223 -36.0851 -36.0535 -36.0535 -16.4569 -16.1314 -16.1314
    12.7719  13.5612  14.7910  15.8260  15.8260  16.3371  16.4105  17.7552
    17.7792  17.7792

          k = 0.0000 0.0909 0.0909 (  4146 PWs)   bands (ev):

   -69.9973 -40.0418 -36.0604 -36.0586 -36.0568 -16.1768 -16.1718 -16.1476
     9.7978  13.4132  13.4261  15.8029  15.8602  16.0178  18.0089  18.1309
    19.4608  19.4832

          k = 0.0000 0.0909 0.1818 (  4130 PWs)   bands (ev):

   -69.9967 -40.0365 -36.0660 -36.0585 -36.0560 -16.2414 -16.1692 -16.1432
    10.2722  13.6156  13.6561  15.7271  15.8117  16.1280  17.7898  18.2017
    18.9461  18.9802

          k = 0.0000 0.0909 0.2727 (  4151 PWs)   bands (ev):

   -69.9959 -40.0295 -36.0740 -36.0578 -36.0549 -16.3278 -16.1631 -16.1375
    11.0085  13.8491  13.9966  15.6851  15.7567  16.2080  17.4180  18.1657
    18.4706  18.5084

          k = 0.0000 0.0909 0.3636 (  4148 PWs)   bands (ev):

   -69.9952 -40.0231 -36.0814 -36.0571 -36.0538 -16.4064 -16.1574 -16.1322
    11.9169  13.9127  14.4144  15.6884  15.7072  16.2151  16.9912  17.7758
    18.1923  18.3108

          k = 0.0000 0.0909 0.4545 (  4159 PWs)   bands (ev):

   -69.9948 -40.0193 -36.0857 -36.0567 -36.0532 -16.4527 -16.1540 -16.1291
    12.8352  13.6118  14.7834  15.6433  15.7206  16.1663  16.6820  17.4927
    18.0643  18.1206

          k = 0.0000 0.1818 0.1818 (  4144 PWs)   bands (ev):

   -69.9961 -40.0305 -36.0681 -36.0631 -36.0552 -16.2418 -16.2276 -16.1384
    10.7141  13.7533  13.9135  15.5635  15.7197  16.1991  17.8374  18.1637
    18.4552  18.6756

          k = 0.0000 0.1818 0.2727 (  4152 PWs)   bands (ev):

   -69.9953 -40.0226 -36.0753 -36.0647 -36.0541 -16.3199 -16.2257 -16.1321
    11.3872  13.9011  14.2662  15.4491  15.6300  16.1278  17.6766  17.9277
    18.3131  18.5063

          k = 0.0000 0.1818 0.3636 (  4147 PWs)   bands (ev):

   -69.9946 -40.0154 -36.0829 -36.0652 -36.0531 -16.3963 -16.2185 -16.1263
    12.1884  13.9093  14.6322  15.4142  15.5971  15.9318  17.3923  17.6016
    18.4221  18.5227

          k = 0.0000 0.1818 0.4545 (  4166 PWs)   bands (ev):

   -69.9942 -40.0111 -36.0875 -36.0653 -36.0525 -16.4414 -16.2141 -16.1228
    12.9470  13.6449  14.9031  15.4598  15.6211  15.7290  17.2294  17.3667
    18.4323  18.6120

          k = 0.0000 0.2727 0.2727 (  4158 PWs)   bands (ev):

   -69.9945 -40.0136 -36.0784 -36.0724 -36.0531 -16.3166 -16.2999 -16.1250
    11.9296  13.8751  14.6857  15.2530  15.5768  15.8763  17.7150  17.8944
    18.2142  18.6683

          k = 0.0000 0.2727 0.3636 (  4163 PWs)   bands (ev):

   -69.9938 -40.0053 -36.0850 -36.0756 -36.0521 -16.3832 -16.2976 -16.1185
    12.5043  13.7460  15.1027  15.1491  15.5717  15.7099  17.5376  17.8721
    18.3693  18.9268

          k = 0.0000 0.2727 0.4545 (  4165 PWs)   bands (ev):

   -69.9934 -40.0004 -36.0898 -36.0766 -36.0516 -16.4267 -16.2920 -16.1146
    12.9541  13.5387  15.1600  15.3254  15.3311  16.0316  17.2992  17.8329
    18.5577  19.1588

          k = 0.0000 0.3636 0.3636 (  4160 PWs)   bands (ev):

   -69.9931 -39.9961 -36.0878 -36.0842 -36.0512 -16.3752 -16.3655 -16.1113
    12.7369  13.5407  14.9730  15.2448  15.6723  16.0717  17.6499  18.2074
    18.2122  19.3074

          k = 0.0000 0.3636 0.4545 (  4156 PWs)   bands (ev):

   -69.9927 -39.9905 -36.0919 -36.0869 -36.0507 -16.4130 -16.3630 -16.1070
    12.8522  13.3966  14.9236  15.0192  16.0171  16.6842  17.4166  18.2615
    18.4052  19.5924

          k = 0.0000 0.4545 0.4545 (  4164 PWs)   bands (ev):

   -69.9923 -39.9846 -36.0934 -36.0929 -36.0502 -16.4055 -16.4042 -16.1025
    12.7630  13.3097  14.8096  14.8415  16.6871  17.1264  17.7649  17.9391
    18.5146  19.8479

          k = 0.0909 0.0909 0.0909 (  4139 PWs)   bands (ev):

   -69.9971 -40.0397 -36.0600 -36.0600 -36.0576 -16.1771 -16.1702 -16.1702
     9.9586  13.4976  13.4976  15.7814  15.7814  16.0894  18.0571  18.0571
    19.0669  19.6997

          k = 0.0909 0.0909 0.1818 (  4146 PWs)   bands (ev):

   -69.9965 -40.0342 -36.0661 -36.0592 -36.0575 -16.2392 -16.1688 -16.1659
    10.4243  13.7054  13.7133  15.6773  15.7246  16.1655  17.8443  18.1664
    18.6193  19.1468

          k = 0.0909 0.0909 0.2727 (  4144 PWs)   bands (ev):

   -69.9957 -40.0269 -36.0743 -36.0580 -36.0571 -16.3249 -16.1618 -16.1602
    11.1444  13.9433  14.0272  15.6205  15.6472  16.1609  17.5224  18.1140
    18.4311  18.5457

          k = 0.0909 0.0909 0.3636 (  4155 PWs)   bands (ev):

   -69.9950 -40.0202 -36.0818 -36.0569 -36.0568 -16.4028 -16.1552 -16.1551
    12.0265  13.9916  14.4150  15.5520  15.6467  16.0821  17.1614  17.8351
    18.0675  18.5147

          k = 0.0909 0.0909 0.4545 (  4145 PWs)   bands (ev):

   -69.9945 -40.0163 -36.0863 -36.0566 -36.0563 -16.4487 -16.1520 -16.1513
    12.9084  13.6793  14.7542  15.4343  15.7514  15.9997  16.9010  17.5553
    17.8061  18.6078

          k = 0.0909 0.1818 0.1818 (  4140 PWs)   bands (ev):

   -69.9959 -40.0281 -36.0678 -36.0636 -36.0575 -16.2391 -16.2259 -16.1621
    10.8618  13.8500  13.9614  15.5282  15.6201  16.1288  17.9022  18.1369
    18.3498  18.8790

          k = 0.0909 0.1818 0.2727 (  4147 PWs)   bands (ev):

   -69.9951 -40.0200 -36.0752 -36.0648 -36.0569 -16.3171 -16.2236 -16.1554
    11.5259  14.0137  14.2834  15.4072  15.5235  15.9586  17.7599  18.0412
    18.3496  18.5590

          k = 0.0909 0.1818 0.3636 (  4160 PWs)   bands (ev):

   -69.9944 -40.0126 -36.0831 -36.0649 -36.0562 -16.3931 -16.2163 -16.1492
    12.3111  14.0286  14.5901  15.3355  15.5119  15.7873  17.5388  17.7079
    18.2127  18.8013

          k = 0.0909 0.1818 0.4545 (  4156 PWs)   bands (ev):

   -69.9940 -40.0083 -36.0878 -36.0650 -36.0557 -16.4379 -16.2119 -16.1455
    13.0475  13.7503  14.8179  15.2666  15.6104  15.7251  17.3691  17.4342
    18.0192  19.1630

          k = 0.0909 0.2727 0.2727 (  4152 PWs)   bands (ev):

   -69.9943 -40.0110 -36.0780 -36.0726 -36.0560 -16.3134 -16.2982 -16.1482
    12.0709  13.9921  14.6950  15.2158  15.4575  15.6755  17.8257  18.0433
    18.1966  18.7912

          k = 0.0909 0.2727 0.3636 (  4172 PWs)   bands (ev):

   -69.9936 -40.0027 -36.0849 -36.0754 -36.0552 -16.3804 -16.2955 -16.1414
    12.6422  13.8648  15.0451  15.1091  15.4593  15.5866  17.6149  17.9570
    18.2625  19.1777

          k = 0.0909 0.2727 0.4545 (  4170 PWs)   bands (ev):

   -69.9932 -39.9977 -36.0898 -36.0763 -36.0547 -16.4238 -16.2900 -16.1374
    13.0788  13.6591  15.0810  15.1214  15.4007  15.9486  17.3335  17.9315
    18.1901  19.6339

          k = 0.0909 0.3636 0.3636 (  4159 PWs)   bands (ev):

   -69.9929 -39.9935 -36.0874 -36.0842 -36.0543 -16.3725 -16.3638 -16.1343
    12.8771  13.6587  14.9434  15.1596  15.6313  15.9096  17.6199  18.0897
    18.3082  19.5988

          k = 0.0909 0.3636 0.4545 (  4161 PWs)   bands (ev):

   -69.9925 -39.9880 -36.0917 -36.0865 -36.0538 -16.4108 -16.3611 -16.1300
    12.9835  13.5186  14.8919  14.9697  15.9435  16.5161  17.3799  18.0513
    18.3949  19.8231

          k = 0.0909 0.4545 0.4545 (  4171 PWs)   bands (ev):

   -69.9921 -39.9822 -36.0930 -36.0925 -36.0533 -16.4036 -16.4024 -16.1256
    12.8945  13.4315  14.7873  14.8150  16.6285  16.9812  17.5413  17.6243
    18.5895  20.0363

          k = 0.1818 0.1818 0.1818 (  4148 PWs)   bands (ev):

   -69.9953 -40.0216 -36.0669 -36.0669 -36.0619 -16.2356 -16.2215 -16.2215
    11.2840  14.0972  14.0972  15.4340  15.4340  15.8794  18.0583  18.0583
    18.4005  19.1074

          k = 0.1818 0.1818 0.2727 (  4154 PWs)   bands (ev):

   -69.9945 -40.0130 -36.0753 -36.0656 -36.0634 -16.3095 -16.2199 -16.2156
    11.9152  14.2973  14.3412  15.3031  15.3068  15.5846  17.9393  18.1197
    18.5312  18.6871

          k = 0.1818 0.1818 0.3636 (  4165 PWs)   bands (ev):

   -69.9938 -40.0052 -36.0837 -36.0645 -36.0641 -16.3844 -16.2107 -16.2102
    12.6374  14.2919  14.5210  15.1715  15.3303  15.5180  17.8148  17.8578
    18.0821  19.2152

          k = 0.1818 0.1818 0.4545 (  4165 PWs)   bands (ev):

   -69.9934 -40.0006 -36.0887 -36.0646 -36.0638 -16.4286 -16.2070 -16.2051
    13.2779  13.9540  14.7045  15.0521  15.4353  15.6785  17.4618  17.7477
    17.8232  19.5723

          k = 0.1818 0.2727 0.2727 (  4154 PWs)   bands (ev):

   -69.9937 -40.0039 -36.0770 -36.0732 -36.0639 -16.3047 -16.2936 -16.2099
    12.4678  14.3114  14.7165  15.1195  15.1902  15.2625  17.9492  18.1212
    18.4423  19.1364

          k = 0.1818 0.2727 0.3636 (  4173 PWs)   bands (ev):

   -69.9930 -39.9955 -36.0846 -36.0750 -36.0635 -16.3730 -16.2898 -16.2027
    13.0264  14.1769  14.8623  15.0070  15.2295  15.3416  17.7212  17.9565
    18.3411  19.4341

          k = 0.1818 0.2727 0.4545 (  4164 PWs)   bands (ev):

   -69.9926 -39.9904 -36.0899 -36.0754 -36.0631 -16.4163 -16.2846 -16.1984
    13.4162  13.9582  14.8470  14.9487  15.3036  15.7515  17.3715  17.8060
    18.2562  19.6407

          k = 0.1818 0.3636 0.3636 (  4186 PWs)   bands (ev):

   -69.9923 -39.9865 -36.0863 -36.0840 -36.0627 -16.3655 -16.3591 -16.1956
    13.2778  13.9674  14.8692  14.9745  15.5055  15.5133  17.6005  17.8160
    18.5897  19.5892

          k = 0.1818 0.3636 0.4545 (  4169 PWs)   bands (ev):

   -69.9919 -39.9811 -36.0910 -36.0856 -36.0621 -16.4049 -16.3560 -16.1913
    13.3566  13.8386  14.8164  14.8593  15.7029  16.1096  17.3232  17.6711
    18.6614  19.8163

          k = 0.1818 0.4545 0.4545 (  4164 PWs)   bands (ev):

   -69.9915 -39.9756 -36.0918 -36.0915 -36.0615 -16.3986 -16.3977 -16.1871
    13.2713  13.7567  14.7339  14.7536  16.3555  16.4441  17.2165  17.3938
    18.8375  20.0925

          k = 0.2727 0.2727 0.2727 (  4146 PWs)   bands (ev):

   -69.9930 -39.9946 -36.0756 -36.0756 -36.0726 -16.2960 -16.2875 -16.2875
    13.0258  14.7356  14.7356  14.8071  15.0005  15.0005  17.9538  17.9538
    18.8871  18.8871

          k = 0.2727 0.2727 0.3636 (  4169 PWs)   bands (ev):

   -69.9923 -39.9860 -36.0844 -36.0744 -36.0741 -16.3634 -16.2825 -16.2819
    13.5392  14.4324  14.7406  14.8989  14.9927  15.1961  17.7057  17.7564
    18.7435  19.3547

          k = 0.2727 0.2727 0.4545 (  4175 PWs)   bands (ev):

   -69.9918 -39.9809 -36.0900 -36.0746 -36.0737 -16.4063 -16.2786 -16.2763
    13.7973  14.2017  14.7356  14.8432  15.1452  15.5997  17.3180  17.6373
    18.6928  19.6738

          k = 0.2727 0.3636 0.3636 (  4155 PWs)   bands (ev):

   -69.9916 -39.9773 -36.0849 -36.0837 -36.0735 -16.3562 -16.3529 -16.2751
    13.8709  14.2984  14.7867  14.8655  15.0712  15.3042  17.5537  17.5548
    19.0297  19.5442

          k = 0.2727 0.3636 0.4545 (  4161 PWs)   bands (ev):

   -69.9911 -39.9721 -36.0902 -36.0843 -36.0730 -16.3972 -16.3494 -16.2709
    13.8921  14.2097  14.7484  14.7910  15.3311  15.6835  17.2281  17.4761
    19.0884  19.8505

          k = 0.2727 0.4545 0.4545 (  4165 PWs)   bands (ev):

   -69.9907 -39.9669 -36.0903 -36.0902 -36.0724 -16.3920 -16.3916 -16.2670
    13.8328  14.1699  14.6837  14.7078  15.8282  15.8592  17.0683  17.3198
    19.2544  20.1277

          k = 0.3636 0.3636 0.3636 (  4173 PWs)   bands (ev):

   -69.9909 -39.9689 -36.0836 -36.0836 -36.0834 -16.3479 -16.3473 -16.3473
    14.3055  14.5561  14.7386  14.7386  15.0752  15.0752  17.3887  17.3887
    19.5498  19.5498

          k = 0.3636 0.3636 0.4545 (  4154 PWs)   bands (ev):

   -69.9904 -39.9638 -36.0894 -36.0833 -36.0828 -16.3901 -16.3439 -16.3426
    14.3044  14.4532  14.7571  14.8873  15.0330  15.4003  17.1407  17.3163
    19.5618  19.9378

          k = 0.3636 0.4545 0.4545 (  4160 PWs)   bands (ev):

   -69.9900 -39.9589 -36.0890 -36.0890 -36.0823 -16.3860 -16.3859 -16.3396
    14.4068  14.5307  14.6790  14.7722  15.3300  15.3832  17.0305  17.1874
    19.7707  20.1551

          k = 0.4545 0.4545 0.4545 (  4176 PWs)   bands (ev):

   -69.9896 -39.9541 -36.0883 -36.0882 -36.0882 -16.3825 -16.3825 -16.3822
    14.6189  14.7476  14.7476  15.0489  15.0489  15.0558  17.0214  17.0214
    20.1708  20.1708

     the Fermi energy is    16.8220 ev

     WARNING: integrated charge=    28.00262601, expected=    28.00000000

!    total energy              =    -448.58298563 Ry
     estimated scf accuracy    <          7.1E-09 Ry
     smearing contrib. (-TS)   =       0.00003680 Ry
     internal energy E=F+TS    =    -448.58302243 Ry

     The total energy is F=E-TS. E is the sum of the following terms:
     one-electron contribution =    -156.73326588 Ry
     hartree contribution      =      93.45587642 Ry
     xc contribution           =     -52.82107591 Ry
     ewald contribution        =    -256.33163106 Ry
     one-center paw contrib.   =     -76.15292599 Ry

     convergence has been achieved in  34 iterations

     negative rho (up, down):  9.705E-04 0.000E+00

     Forces acting on atoms (cartesian axes, Ry/au):

     atom    1 type  1   force =     0.00000000    0.00000000    0.00000000
     atom    2 type  2   force =     0.00000000    0.00000000    0.00000000

     Total force =     0.000000     Total SCF correction =     0.000000


     Computing stress (Cartesian axis) and pressure


     negative rho (up, down):  9.705E-04 0.000E+00
          total   stress  (Ry/bohr**3)                   (kbar)     P=      -42.81
  -0.00029102   0.00000000   0.00000000          -42.81        0.00        0.00
   0.00000000  -0.00029102   0.00000000            0.00      -42.81        0.00
   0.00000000   0.00000000  -0.00029102            0.00        0.00      -42.81


     Writing all to output data dir ./TiFe.save/ :
     XML data file, charge density, pseudopotentials, collected wavefunctions

     init_run     :      1.12s CPU      1.18s WALL (       1 calls)
     electrons    :     35.20s CPU     37.33s WALL (       1 calls)
     forces       :      0.26s CPU      0.29s WALL (       1 calls)
     stress       :      1.47s CPU      1.53s WALL (       1 calls)

     Called by init_run:
     wfcinit      :      0.33s CPU      0.34s WALL (       1 calls)
     potinit      :      0.37s CPU      0.38s WALL (       1 calls)
     hinit0       :      0.25s CPU      0.26s WALL (       1 calls)

     Called by electrons:
     c_bands      :     21.10s CPU     21.62s WALL (      34 calls)
     sum_band     :      7.34s CPU      8.19s WALL (      34 calls)
     v_of_rho     :      0.78s CPU      0.84s WALL (      35 calls)
     newd         :      4.12s CPU      4.79s WALL (      35 calls)
     PAW_pot      :      1.87s CPU      1.91s WALL (      35 calls)
     mix_rho      :      0.09s CPU      0.10s WALL (      34 calls)

     Called by c_bands:
     init_us_2    :      0.60s CPU      0.62s WALL (    3976 calls)
     cegterg      :     20.03s CPU     20.49s WALL (    1904 calls)

     Called by *egterg:
     cdiaghg      :      2.33s CPU      2.37s WALL (    6664 calls)
     h_psi        :     15.06s CPU     15.45s WALL (    6720 calls)
     s_psi        :      0.43s CPU      0.44s WALL (    6720 calls)
     g_psi        :      0.09s CPU      0.09s WALL (    4760 calls)

     Called by h_psi:
     h_psi:calbec :      0.85s CPU      0.87s WALL (    6720 calls)
     vloc_psi     :     13.68s CPU     14.04s WALL (    6720 calls)
     add_vuspsi   :      0.45s CPU      0.46s WALL (    6720 calls)

     General routines
     calbec       :      1.21s CPU      1.24s WALL (    9576 calls)
     fft          :      0.58s CPU      0.66s WALL (     478 calls)
     ffts         :      0.29s CPU      0.29s WALL (      69 calls)
     fftw         :     13.01s CPU     13.34s WALL (  201382 calls)
     interpolate  :      0.32s CPU      0.32s WALL (      35 calls)

     Parallel routines

     PWSCF        :     38.34s CPU     40.75s WALL


   This run was terminated on:   0:43:59  25Oct2025            

=------------------------------------------------------------------------------=
   JOB DONE.
=------------------------------------------------------------------------------=
