
     Program PWSCF v.7.4 starts on 25Oct2025 at  0:38:25 

     This program is part of the open-source Quantum ESPRESSO suite
     for quantum simulation of materials; please cite
         "P. Giannozzi et al., J. Phys.:Condens. Matter 21 395502 (2009);
         "P. Giannozzi et al., J. Phys.:Condens. Matter 29 465901 (2017);
         "P. Giannozzi et al., J. Chem. Phys. 152 154105 (2020);
          URL http://www.quantum-espresso.org", 
     in publications or presentations arising from this work. More details at
     http://www.quantum-espresso.org/quote

     Parallel version (MPI & OpenMP), running on       8 processor cores
     Number of MPI processes:                 8
     Threads/MPI process:                     1

     MPI processes distributed on     1 nodes
     210383 MiB available memory on the printing compute node when the environment starts

     Reading input from TiFe_6.in

     Current dimensions of program PWSCF are:
     Max number of different atomic species (ntypx) = 10
     Max number of k-points (npk) =  40000
     Max angular momentum in pseudopotentials (lmaxx) =  4
     file Fe.pbe-spn-kjpaw_psl.0.2.1.UPF: wavefunction(s)  3D renormalized

     IMPORTANT: XC functional enforced from input :
     Exchange-correlation= PBE
                           (   1   4   3   4   0   0   0)
     Any further DFT definition will be discarded
     Please, verify this is what you really want

     Message from routine setup:
     using ibrav=0 with symmetry is DISCOURAGED, use correct ibrav instead

     R & G space division:  proc/nbgrp/npool/nimage =       8
     Subspace diagonalization in iterative solution of the eigenvalue problem:
     a serial algorithm will be used


     Parallelization info
     --------------------
     sticks:   dense  smooth     PW     G-vecs:    dense   smooth      PW
     Min         511     147     42                24594     3755     590
     Max         513     148     43                24595     3758     593
     Sum        4093    1177    341               196757    30047    4729

     Using Slab Decomposition



     bravais-lattice index     =            0
     lattice parameter (alat)  =       5.4399  a.u.
     unit-cell volume          =     160.9818 (a.u.)^3
     number of atoms/cell      =            2
     number of atomic types    =            2
     number of electrons       =        28.00
     number of Kohn-Sham states=           18
     kinetic-energy cutoff     =     124.0000  Ry
     charge density cutoff     =    1736.0000  Ry
     scf convergence threshold =      1.0E-08
     mixing beta               =       0.7000
     number of iterations used =            8  plain     mixing
     Exchange-correlation= PBE
                           (   1   4   3   4   0   0   0)

     celldm(1)=   5.439917  celldm(2)=   0.000000  celldm(3)=   0.000000
     celldm(4)=   0.000000  celldm(5)=   0.000000  celldm(6)=   0.000000

     crystal axes: (cart. coord. in units of alat)
               a(1) = (   1.000000   0.000000   0.000000 )  
               a(2) = (   0.000000   1.000000   0.000000 )  
               a(3) = (   0.000000   0.000000   1.000000 )  

     reciprocal axes: (cart. coord. in units 2 pi/alat)
               b(1) = (  1.000000  0.000000  0.000000 )  
               b(2) = (  0.000000  1.000000  0.000000 )  
               b(3) = (  0.000000  0.000000  1.000000 )  


     PseudoPot. # 1 for Fe read from file:
     ../pseudos/Fe.pbe-spn-kjpaw_psl.0.2.1.UPF
     MD5 check sum: e86618425769142926afa95317d90200
     Pseudo is Projector augmented-wave + core cor, Zval = 16.0
     Generated using "atomic" code by A. Dal Corso  v.5.0.99 svn rev. 10869
     Shape of augmentation charge: PSQ
     Using radial grid of 1191 points,  6 beta functions with: 
                l(1) =   0
                l(2) =   0
                l(3) =   1
                l(4) =   1
                l(5) =   2
                l(6) =   2
     Q(r) pseudized with 0 coefficients 


     PseudoPot. # 2 for Ti read from file:
     ../pseudos/ti_pbe_v1.4.uspp.F.UPF
     MD5 check sum: 88a00a6731bd790ddea75d31a80cb452
     Pseudo is Ultrasoft + core correction, Zval = 12.0
     Generated by new atomic code, or converted to UPF format
     Using radial grid of  851 points,  6 beta functions with: 
                l(1) =   0
                l(2) =   0
                l(3) =   1
                l(4) =   1
                l(5) =   2
                l(6) =   2
     Q(r) pseudized with  6 coefficients,  rinner =    1.000   1.000   1.000
                                                       1.000   1.000

     atomic species   valence    mass     pseudopotential
     Fe               16.00    55.84500     Fe( 1.00)
     Ti               12.00    47.86700     Ti( 1.00)

     48 Sym. Ops., with inversion, found



   Cartesian axes

     site n.     atom                  positions (alat units)
         1        Fe     tau(   1) = (   0.5000000   0.5000000   0.5000000  )
         2        Ti     tau(   2) = (   0.0000000   0.0000000   0.0000000  )

     number of k points=    56  Marzari-Vanderbilt smearing, width (Ry)=  0.0050
                       cart. coord. in units 2pi/alat
        k(    1) = (   0.0000000   0.0000000   0.0000000), wk =   0.0015026
        k(    2) = (   0.0000000   0.0000000   0.0909091), wk =   0.0090158
        k(    3) = (   0.0000000   0.0000000   0.1818182), wk =   0.0090158
        k(    4) = (   0.0000000   0.0000000   0.2727273), wk =   0.0090158
        k(    5) = (   0.0000000   0.0000000   0.3636364), wk =   0.0090158
        k(    6) = (   0.0000000   0.0000000   0.4545455), wk =   0.0090158
        k(    7) = (   0.0000000   0.0909091   0.0909091), wk =   0.0180316
        k(    8) = (   0.0000000   0.0909091   0.1818182), wk =   0.0360631
        k(    9) = (   0.0000000   0.0909091   0.2727273), wk =   0.0360631
        k(   10) = (   0.0000000   0.0909091   0.3636364), wk =   0.0360631
        k(   11) = (   0.0000000   0.0909091   0.4545455), wk =   0.0360631
        k(   12) = (   0.0000000   0.1818182   0.1818182), wk =   0.0180316
        k(   13) = (   0.0000000   0.1818182   0.2727273), wk =   0.0360631
        k(   14) = (   0.0000000   0.1818182   0.3636364), wk =   0.0360631
        k(   15) = (   0.0000000   0.1818182   0.4545455), wk =   0.0360631
        k(   16) = (   0.0000000   0.2727273   0.2727273), wk =   0.0180316
        k(   17) = (   0.0000000   0.2727273   0.3636364), wk =   0.0360631
        k(   18) = (   0.0000000   0.2727273   0.4545455), wk =   0.0360631
        k(   19) = (   0.0000000   0.3636364   0.3636364), wk =   0.0180316
        k(   20) = (   0.0000000   0.3636364   0.4545455), wk =   0.0360631
        k(   21) = (   0.0000000   0.4545455   0.4545455), wk =   0.0180316
        k(   22) = (   0.0909091   0.0909091   0.0909091), wk =   0.0120210
        k(   23) = (   0.0909091   0.0909091   0.1818182), wk =   0.0360631
        k(   24) = (   0.0909091   0.0909091   0.2727273), wk =   0.0360631
        k(   25) = (   0.0909091   0.0909091   0.3636364), wk =   0.0360631
        k(   26) = (   0.0909091   0.0909091   0.4545455), wk =   0.0360631
        k(   27) = (   0.0909091   0.1818182   0.1818182), wk =   0.0360631
        k(   28) = (   0.0909091   0.1818182   0.2727273), wk =   0.0721262
        k(   29) = (   0.0909091   0.1818182   0.3636364), wk =   0.0721262
        k(   30) = (   0.0909091   0.1818182   0.4545455), wk =   0.0721262
        k(   31) = (   0.0909091   0.2727273   0.2727273), wk =   0.0360631
        k(   32) = (   0.0909091   0.2727273   0.3636364), wk =   0.0721262
        k(   33) = (   0.0909091   0.2727273   0.4545455), wk =   0.0721262
        k(   34) = (   0.0909091   0.3636364   0.3636364), wk =   0.0360631
        k(   35) = (   0.0909091   0.3636364   0.4545455), wk =   0.0721262
        k(   36) = (   0.0909091   0.4545455   0.4545455), wk =   0.0360631
        k(   37) = (   0.1818182   0.1818182   0.1818182), wk =   0.0120210
        k(   38) = (   0.1818182   0.1818182   0.2727273), wk =   0.0360631
        k(   39) = (   0.1818182   0.1818182   0.3636364), wk =   0.0360631
        k(   40) = (   0.1818182   0.1818182   0.4545455), wk =   0.0360631
        k(   41) = (   0.1818182   0.2727273   0.2727273), wk =   0.0360631
        k(   42) = (   0.1818182   0.2727273   0.3636364), wk =   0.0721262
        k(   43) = (   0.1818182   0.2727273   0.4545455), wk =   0.0721262
        k(   44) = (   0.1818182   0.3636364   0.3636364), wk =   0.0360631
        k(   45) = (   0.1818182   0.3636364   0.4545455), wk =   0.0721262
        k(   46) = (   0.1818182   0.4545455   0.4545455), wk =   0.0360631
        k(   47) = (   0.2727273   0.2727273   0.2727273), wk =   0.0120210
        k(   48) = (   0.2727273   0.2727273   0.3636364), wk =   0.0360631
        k(   49) = (   0.2727273   0.2727273   0.4545455), wk =   0.0360631
        k(   50) = (   0.2727273   0.3636364   0.3636364), wk =   0.0360631
        k(   51) = (   0.2727273   0.3636364   0.4545455), wk =   0.0721262
        k(   52) = (   0.2727273   0.4545455   0.4545455), wk =   0.0360631
        k(   53) = (   0.3636364   0.3636364   0.3636364), wk =   0.0120210
        k(   54) = (   0.3636364   0.3636364   0.4545455), wk =   0.0360631
        k(   55) = (   0.3636364   0.4545455   0.4545455), wk =   0.0360631
        k(   56) = (   0.4545455   0.4545455   0.4545455), wk =   0.0120210

     Dense  grid:   196757 G-vectors     FFT dimensions: (  75,  75,  75)

     Smooth grid:    30047 G-vectors     FFT dimensions: (  40,  40,  40)

     Estimated max dynamical RAM per process >     104.40 MB

     Estimated total dynamical RAM >     835.16 MB

     Check: negative core charge=   -0.000002

     Initial potential from superposition of free atoms

     starting charge      26.9995, renormalised to      28.0000

     negative rho (up, down):  1.317E-03 0.000E+00
     Starting wfcs are   23 randomized atomic wfcs
     Checking if some PAW data can be deallocated... 

     total cpu time spent up to now is        1.3 secs

     per-process dynamical memory:   134.1 Mb

     Self-consistent Calculation

     iteration #  1     ecut=   124.00 Ry     beta= 0.70
     Davidson diagonalization with overlap
     ethr =  1.00E-02,  avg # of iterations =  2.1

     negative rho (up, down):  5.282E-05 0.000E+00

     total cpu time spent up to now is        2.4 secs

     total energy              =    -435.98264940 Ry
     estimated scf accuracy    <      16.13106157 Ry

     iteration #  2     ecut=   124.00 Ry     beta= 0.70
     Davidson diagonalization with overlap
     ethr =  1.00E-02,  avg # of iterations =  6.1

     negative rho (up, down):  5.186E-05 0.000E+00

     total cpu time spent up to now is        4.1 secs

     total energy              =    -448.50193841 Ry
     estimated scf accuracy    <      61.63688059 Ry

     iteration #  3     ecut=   124.00 Ry     beta= 0.70
     Davidson diagonalization with overlap
     ethr =  1.00E-02,  avg # of iterations =  3.1

     negative rho (up, down):  2.892E-04 0.000E+00

     total cpu time spent up to now is        5.3 secs

     total energy              =    -448.48715140 Ry
     estimated scf accuracy    <      15.62298718 Ry

     iteration #  4     ecut=   124.00 Ry     beta= 0.70
     Davidson diagonalization with overlap
     ethr =  1.00E-02,  avg # of iterations =  2.1

     negative rho (up, down):  2.957E-04 0.000E+00

     total cpu time spent up to now is        6.4 secs

     total energy              =    -449.05021179 Ry
     estimated scf accuracy    <       3.99164056 Ry

     iteration #  5     ecut=   124.00 Ry     beta= 0.70
     Davidson diagonalization with overlap
     ethr =  1.00E-02,  avg # of iterations =  1.0

     negative rho (up, down):  3.236E-04 0.000E+00

     total cpu time spent up to now is        7.3 secs

     total energy              =    -448.86483799 Ry
     estimated scf accuracy    <       3.73938260 Ry

     iteration #  6     ecut=   124.00 Ry     beta= 0.70
     Davidson diagonalization with overlap
     ethr =  1.00E-02,  avg # of iterations =  1.0

     negative rho (up, down):  4.850E-04 0.000E+00

     total cpu time spent up to now is        8.2 secs

     WARNING: integrated charge=    27.98934024, expected=    28.00000000

     total energy              =    -448.53025531 Ry
     estimated scf accuracy    <       2.07533545 Ry

     iteration #  7     ecut=   124.00 Ry     beta= 0.70
     Davidson diagonalization with overlap
     ethr =  7.41E-03,  avg # of iterations =  1.5

     negative rho (up, down):  8.769E-04 0.000E+00

     total cpu time spent up to now is        9.2 secs

     WARNING: integrated charge=    27.96866943, expected=    28.00000000

 %%%%%%%%%%%%%%%%%%%%%%%%%%%%%%%%%%%%%%%%%%%%%%%%%%%%%%%%%%%%%%%%%%%%%%%%%%%%%%
     Error in routine electrons (1):
     charge is wrong
 %%%%%%%%%%%%%%%%%%%%%%%%%%%%%%%%%%%%%%%%%%%%%%%%%%%%%%%%%%%%%%%%%%%%%%%%%%%%%%

     stopping ...
