
     Program PWSCF v.7.4 starts on 25Oct2025 at  0:36:35 

     This program is part of the open-source Quantum ESPRESSO suite
     for quantum simulation of materials; please cite
         "P. Giannozzi et al., J. Phys.:Condens. Matter 21 395502 (2009);
         "P. Giannozzi et al., J. Phys.:Condens. Matter 29 465901 (2017);
         "P. Giannozzi et al., J. Chem. Phys. 152 154105 (2020);
          URL http://www.quantum-espresso.org", 
     in publications or presentations arising from this work. More details at
     http://www.quantum-espresso.org/quote

     Parallel version (MPI & OpenMP), running on       8 processor cores
     Number of MPI processes:                 8
     Threads/MPI process:                     1

     MPI processes distributed on     1 nodes
     210514 MiB available memory on the printing compute node when the environment starts

     Reading input from TiFe_3.in

     Current dimensions of program PWSCF are:
     Max number of different atomic species (ntypx) = 10
     Max number of k-points (npk) =  40000
     Max angular momentum in pseudopotentials (lmaxx) =  4
     file Fe.pbe-spn-kjpaw_psl.0.2.1.UPF: wavefunction(s)  3D renormalized

     IMPORTANT: XC functional enforced from input :
     Exchange-correlation= PBE
                           (   1   4   3   4   0   0   0)
     Any further DFT definition will be discarded
     Please, verify this is what you really want

     Message from routine setup:
     using ibrav=0 with symmetry is DISCOURAGED, use correct ibrav instead

     R & G space division:  proc/nbgrp/npool/nimage =       8
     Subspace diagonalization in iterative solution of the eigenvalue problem:
     a serial algorithm will be used


     Parallelization info
     --------------------
     sticks:   dense  smooth     PW     G-vecs:    dense   smooth      PW
     Min         499     142     42                23852     3628     578
     Max         501     143     44                23856     3631     579
     Sum        4001    1137    341               190823    29039    4625

     Using Slab Decomposition



     bravais-lattice index     =            0
     lattice parameter (alat)  =       5.3832  a.u.
     unit-cell volume          =     156.0011 (a.u.)^3
     number of atoms/cell      =            2
     number of atomic types    =            2
     number of electrons       =        28.00
     number of Kohn-Sham states=           18
     kinetic-energy cutoff     =     124.0000  Ry
     charge density cutoff     =    1736.0000  Ry
     scf convergence threshold =      1.0E-08
     mixing beta               =       0.7000
     number of iterations used =            8  plain     mixing
     Exchange-correlation= PBE
                           (   1   4   3   4   0   0   0)

     celldm(1)=   5.383225  celldm(2)=   0.000000  celldm(3)=   0.000000
     celldm(4)=   0.000000  celldm(5)=   0.000000  celldm(6)=   0.000000

     crystal axes: (cart. coord. in units of alat)
               a(1) = (   1.000000   0.000000   0.000000 )  
               a(2) = (   0.000000   1.000000   0.000000 )  
               a(3) = (   0.000000   0.000000   1.000000 )  

     reciprocal axes: (cart. coord. in units 2 pi/alat)
               b(1) = (  1.000000  0.000000  0.000000 )  
               b(2) = (  0.000000  1.000000  0.000000 )  
               b(3) = (  0.000000  0.000000  1.000000 )  


     PseudoPot. # 1 for Fe read from file:
     ../pseudos/Fe.pbe-spn-kjpaw_psl.0.2.1.UPF
     MD5 check sum: e86618425769142926afa95317d90200
     Pseudo is Projector augmented-wave + core cor, Zval = 16.0
     Generated using "atomic" code by A. Dal Corso  v.5.0.99 svn rev. 10869
     Shape of augmentation charge: PSQ
     Using radial grid of 1191 points,  6 beta functions with: 
                l(1) =   0
                l(2) =   0
                l(3) =   1
                l(4) =   1
                l(5) =   2
                l(6) =   2
     Q(r) pseudized with 0 coefficients 


     PseudoPot. # 2 for Ti read from file:
     ../pseudos/ti_pbe_v1.4.uspp.F.UPF
     MD5 check sum: 88a00a6731bd790ddea75d31a80cb452
     Pseudo is Ultrasoft + core correction, Zval = 12.0
     Generated by new atomic code, or converted to UPF format
     Using radial grid of  851 points,  6 beta functions with: 
                l(1) =   0
                l(2) =   0
                l(3) =   1
                l(4) =   1
                l(5) =   2
                l(6) =   2
     Q(r) pseudized with  6 coefficients,  rinner =    1.000   1.000   1.000
                                                       1.000   1.000

     atomic species   valence    mass     pseudopotential
     Fe               16.00    55.84500     Fe( 1.00)
     Ti               12.00    47.86700     Ti( 1.00)

     48 Sym. Ops., with inversion, found



   Cartesian axes

     site n.     atom                  positions (alat units)
         1        Fe     tau(   1) = (   0.5000000   0.5000000   0.5000000  )
         2        Ti     tau(   2) = (   0.0000000   0.0000000   0.0000000  )

     number of k points=    56  Marzari-Vanderbilt smearing, width (Ry)=  0.0050
                       cart. coord. in units 2pi/alat
        k(    1) = (   0.0000000   0.0000000   0.0000000), wk =   0.0015026
        k(    2) = (   0.0000000   0.0000000   0.0909091), wk =   0.0090158
        k(    3) = (   0.0000000   0.0000000   0.1818182), wk =   0.0090158
        k(    4) = (   0.0000000   0.0000000   0.2727273), wk =   0.0090158
        k(    5) = (   0.0000000   0.0000000   0.3636364), wk =   0.0090158
        k(    6) = (   0.0000000   0.0000000   0.4545455), wk =   0.0090158
        k(    7) = (   0.0000000   0.0909091   0.0909091), wk =   0.0180316
        k(    8) = (   0.0000000   0.0909091   0.1818182), wk =   0.0360631
        k(    9) = (   0.0000000   0.0909091   0.2727273), wk =   0.0360631
        k(   10) = (   0.0000000   0.0909091   0.3636364), wk =   0.0360631
        k(   11) = (   0.0000000   0.0909091   0.4545455), wk =   0.0360631
        k(   12) = (   0.0000000   0.1818182   0.1818182), wk =   0.0180316
        k(   13) = (   0.0000000   0.1818182   0.2727273), wk =   0.0360631
        k(   14) = (   0.0000000   0.1818182   0.3636364), wk =   0.0360631
        k(   15) = (   0.0000000   0.1818182   0.4545455), wk =   0.0360631
        k(   16) = (   0.0000000   0.2727273   0.2727273), wk =   0.0180316
        k(   17) = (   0.0000000   0.2727273   0.3636364), wk =   0.0360631
        k(   18) = (   0.0000000   0.2727273   0.4545455), wk =   0.0360631
        k(   19) = (   0.0000000   0.3636364   0.3636364), wk =   0.0180316
        k(   20) = (   0.0000000   0.3636364   0.4545455), wk =   0.0360631
        k(   21) = (   0.0000000   0.4545455   0.4545455), wk =   0.0180316
        k(   22) = (   0.0909091   0.0909091   0.0909091), wk =   0.0120210
        k(   23) = (   0.0909091   0.0909091   0.1818182), wk =   0.0360631
        k(   24) = (   0.0909091   0.0909091   0.2727273), wk =   0.0360631
        k(   25) = (   0.0909091   0.0909091   0.3636364), wk =   0.0360631
        k(   26) = (   0.0909091   0.0909091   0.4545455), wk =   0.0360631
        k(   27) = (   0.0909091   0.1818182   0.1818182), wk =   0.0360631
        k(   28) = (   0.0909091   0.1818182   0.2727273), wk =   0.0721262
        k(   29) = (   0.0909091   0.1818182   0.3636364), wk =   0.0721262
        k(   30) = (   0.0909091   0.1818182   0.4545455), wk =   0.0721262
        k(   31) = (   0.0909091   0.2727273   0.2727273), wk =   0.0360631
        k(   32) = (   0.0909091   0.2727273   0.3636364), wk =   0.0721262
        k(   33) = (   0.0909091   0.2727273   0.4545455), wk =   0.0721262
        k(   34) = (   0.0909091   0.3636364   0.3636364), wk =   0.0360631
        k(   35) = (   0.0909091   0.3636364   0.4545455), wk =   0.0721262
        k(   36) = (   0.0909091   0.4545455   0.4545455), wk =   0.0360631
        k(   37) = (   0.1818182   0.1818182   0.1818182), wk =   0.0120210
        k(   38) = (   0.1818182   0.1818182   0.2727273), wk =   0.0360631
        k(   39) = (   0.1818182   0.1818182   0.3636364), wk =   0.0360631
        k(   40) = (   0.1818182   0.1818182   0.4545455), wk =   0.0360631
        k(   41) = (   0.1818182   0.2727273   0.2727273), wk =   0.0360631
        k(   42) = (   0.1818182   0.2727273   0.3636364), wk =   0.0721262
        k(   43) = (   0.1818182   0.2727273   0.4545455), wk =   0.0721262
        k(   44) = (   0.1818182   0.3636364   0.3636364), wk =   0.0360631
        k(   45) = (   0.1818182   0.3636364   0.4545455), wk =   0.0721262
        k(   46) = (   0.1818182   0.4545455   0.4545455), wk =   0.0360631
        k(   47) = (   0.2727273   0.2727273   0.2727273), wk =   0.0120210
        k(   48) = (   0.2727273   0.2727273   0.3636364), wk =   0.0360631
        k(   49) = (   0.2727273   0.2727273   0.4545455), wk =   0.0360631
        k(   50) = (   0.2727273   0.3636364   0.3636364), wk =   0.0360631
        k(   51) = (   0.2727273   0.3636364   0.4545455), wk =   0.0721262
        k(   52) = (   0.2727273   0.4545455   0.4545455), wk =   0.0360631
        k(   53) = (   0.3636364   0.3636364   0.3636364), wk =   0.0120210
        k(   54) = (   0.3636364   0.3636364   0.4545455), wk =   0.0360631
        k(   55) = (   0.3636364   0.4545455   0.4545455), wk =   0.0360631
        k(   56) = (   0.4545455   0.4545455   0.4545455), wk =   0.0120210

     Dense  grid:   190823 G-vectors     FFT dimensions: (  72,  72,  72)

     Smooth grid:    29039 G-vectors     FFT dimensions: (  40,  40,  40)

     Estimated max dynamical RAM per process >     100.89 MB

     Estimated total dynamical RAM >     807.13 MB

     Check: negative core charge=   -0.000002

     Initial potential from superposition of free atoms

     starting charge      26.9995, renormalised to      28.0000

     negative rho (up, down):  1.332E-03 0.000E+00
     Starting wfcs are   23 randomized atomic wfcs
     Checking if some PAW data can be deallocated... 

     total cpu time spent up to now is        1.7 secs

     per-process dynamical memory:   133.2 Mb

     Self-consistent Calculation

     iteration #  1     ecut=   124.00 Ry     beta= 0.70
     Davidson diagonalization with overlap
     ethr =  1.00E-02,  avg # of iterations =  2.1

     negative rho (up, down):  5.654E-05 0.000E+00

     total cpu time spent up to now is        2.8 secs

     total energy              =    -436.58152417 Ry
     estimated scf accuracy    <      15.39673976 Ry

     iteration #  2     ecut=   124.00 Ry     beta= 0.70
     Davidson diagonalization with overlap
     ethr =  1.00E-02,  avg # of iterations =  6.1

     negative rho (up, down):  6.375E-05 0.000E+00

     total cpu time spent up to now is        4.4 secs

     total energy              =    -448.43663634 Ry
     estimated scf accuracy    <      59.39790922 Ry

     iteration #  3     ecut=   124.00 Ry     beta= 0.70
     Davidson diagonalization with overlap
     ethr =  1.00E-02,  avg # of iterations =  3.0

     negative rho (up, down):  3.006E-04 0.000E+00

     total cpu time spent up to now is        5.6 secs

     total energy              =    -448.46019065 Ry
     estimated scf accuracy    <      14.95408889 Ry

     iteration #  4     ecut=   124.00 Ry     beta= 0.70
     Davidson diagonalization with overlap
     ethr =  1.00E-02,  avg # of iterations =  2.2

     negative rho (up, down):  2.917E-04 0.000E+00

     total cpu time spent up to now is        6.6 secs

     total energy              =    -449.01597071 Ry
     estimated scf accuracy    <       3.74785153 Ry

     iteration #  5     ecut=   124.00 Ry     beta= 0.70
     Davidson diagonalization with overlap
     ethr =  1.00E-02,  avg # of iterations =  1.0

     negative rho (up, down):  4.049E-04 0.000E+00

     total cpu time spent up to now is        7.5 secs

     total energy              =    -448.66663539 Ry
     estimated scf accuracy    <       3.49796491 Ry

     iteration #  6     ecut=   124.00 Ry     beta= 0.70
     Davidson diagonalization with overlap
     ethr =  1.00E-02,  avg # of iterations =  1.0

     negative rho (up, down):  4.049E-04 0.000E+00

     total cpu time spent up to now is        8.4 secs

     total energy              =    -448.75720970 Ry
     estimated scf accuracy    <       1.09705957 Ry

     iteration #  7     ecut=   124.00 Ry     beta= 0.70
     Davidson diagonalization with overlap
     ethr =  3.92E-03,  avg # of iterations =  1.0

     negative rho (up, down):  3.921E-04 0.000E+00

     total cpu time spent up to now is        9.3 secs

     total energy              =    -448.79706261 Ry
     estimated scf accuracy    <       1.06246265 Ry

     iteration #  8     ecut=   124.00 Ry     beta= 0.70
     Davidson diagonalization with overlap
     ethr =  3.79E-03,  avg # of iterations =  1.0

     negative rho (up, down):  7.061E-04 0.000E+00

     total cpu time spent up to now is       10.2 secs

     total energy              =    -448.77892121 Ry
     estimated scf accuracy    <       1.27008610 Ry

     iteration #  9     ecut=   124.00 Ry     beta= 0.70
     Davidson diagonalization with overlap
     ethr =  3.79E-03,  avg # of iterations =  1.1

     negative rho (up, down):  1.495E-03 0.000E+00

     total cpu time spent up to now is       11.1 secs

     total energy              =    -448.13785070 Ry
     estimated scf accuracy    <       1.78646164 Ry

     iteration # 10     ecut=   124.00 Ry     beta= 0.70
     Davidson diagonalization with overlap
     ethr =  3.79E-03,  avg # of iterations =  4.9

     negative rho (up, down):  1.154E-03 0.000E+00

     total cpu time spent up to now is       12.3 secs

     total energy              =    -448.66959036 Ry
     estimated scf accuracy    <      15.03243911 Ry

     iteration # 11     ecut=   124.00 Ry     beta= 0.70
     Davidson diagonalization with overlap
     ethr =  3.79E-03,  avg # of iterations =  2.3

     negative rho (up, down):  1.070E-03 0.000E+00

     total cpu time spent up to now is       13.3 secs

     total energy              =    -449.02279906 Ry
     estimated scf accuracy    <       4.70654630 Ry

     iteration # 12     ecut=   124.00 Ry     beta= 0.70
     Davidson diagonalization with overlap
     ethr =  3.79E-03,  avg # of iterations =  1.2

     negative rho (up, down):  6.076E-04 0.000E+00

     total cpu time spent up to now is       14.2 secs

     total energy              =    -447.84034578 Ry
     estimated scf accuracy    <      10.26358487 Ry

     iteration # 13     ecut=   124.00 Ry     beta= 0.70
     Davidson diagonalization with overlap
     ethr =  3.79E-03,  avg # of iterations =  3.7

     negative rho (up, down):  5.136E-04 0.000E+00

     total cpu time spent up to now is       15.3 secs

     total energy              =    -448.62038254 Ry
     estimated scf accuracy    <       0.16368547 Ry

     iteration # 14     ecut=   124.00 Ry     beta= 0.70
     Davidson diagonalization with overlap
     ethr =  5.85E-04,  avg # of iterations =  2.9

     negative rho (up, down):  6.029E-04 0.000E+00

     total cpu time spent up to now is       16.3 secs

     total energy              =    -448.58349507 Ry
     estimated scf accuracy    <       0.67599094 Ry

     iteration # 15     ecut=   124.00 Ry     beta= 0.70
     Davidson diagonalization with overlap
     ethr =  5.85E-04,  avg # of iterations =  1.2

     negative rho (up, down):  6.011E-04 0.000E+00

     total cpu time spent up to now is       17.2 secs

     total energy              =    -448.57457472 Ry
     estimated scf accuracy    <       0.29702049 Ry

     iteration # 16     ecut=   124.00 Ry     beta= 0.70
     Davidson diagonalization with overlap
     ethr =  5.85E-04,  avg # of iterations =  2.1

     negative rho (up, down):  5.362E-04 0.000E+00

     total cpu time spent up to now is       18.2 secs

     total energy              =    -448.60299705 Ry
     estimated scf accuracy    <       0.07689829 Ry

     iteration # 17     ecut=   124.00 Ry     beta= 0.70
     Davidson diagonalization with overlap
     ethr =  2.75E-04,  avg # of iterations =  1.1

     negative rho (up, down):  5.030E-04 0.000E+00

     total cpu time spent up to now is       19.1 secs

     total energy              =    -448.61403915 Ry
     estimated scf accuracy    <       0.14570051 Ry

     iteration # 18     ecut=   124.00 Ry     beta= 0.70
     Davidson diagonalization with overlap
     ethr =  2.75E-04,  avg # of iterations =  1.1

     negative rho (up, down):  4.797E-04 0.000E+00

     total cpu time spent up to now is       20.0 secs

     total energy              =    -448.61050039 Ry
     estimated scf accuracy    <       0.26670635 Ry

     iteration # 19     ecut=   124.00 Ry     beta= 0.70
     Davidson diagonalization with overlap
     ethr =  2.75E-04,  avg # of iterations =  1.0

     negative rho (up, down):  6.089E-04 0.000E+00

     total cpu time spent up to now is       20.8 secs

     total energy              =    -448.59728653 Ry
     estimated scf accuracy    <       0.17165103 Ry

     iteration # 20     ecut=   124.00 Ry     beta= 0.70
     Davidson diagonalization with overlap
     ethr =  2.75E-04,  avg # of iterations =  1.0

     negative rho (up, down):  5.754E-04 0.000E+00

     total cpu time spent up to now is       21.7 secs

     total energy              =    -448.59947256 Ry
     estimated scf accuracy    <       0.10660131 Ry

     iteration # 21     ecut=   124.00 Ry     beta= 0.70
     Davidson diagonalization with overlap
     ethr =  2.75E-04,  avg # of iterations =  1.0

     negative rho (up, down):  1.172E-03 0.000E+00

     total cpu time spent up to now is       22.7 secs

     total energy              =    -448.54884703 Ry
     estimated scf accuracy    <       0.12450616 Ry

     iteration # 22     ecut=   124.00 Ry     beta= 0.70
     Davidson diagonalization with overlap
     ethr =  2.75E-04,  avg # of iterations =  3.0

     negative rho (up, down):  9.341E-04 0.000E+00

     total cpu time spent up to now is       23.8 secs

     total energy              =    -448.56741757 Ry
     estimated scf accuracy    <       0.03635550 Ry

     iteration # 23     ecut=   124.00 Ry     beta= 0.70
     Davidson diagonalization with overlap
     ethr =  1.30E-04,  avg # of iterations =  2.0

     negative rho (up, down):  1.010E-03 0.000E+00

     total cpu time spent up to now is       24.8 secs

     total energy              =    -448.56997434 Ry
     estimated scf accuracy    <       0.01023140 Ry

     iteration # 24     ecut=   124.00 Ry     beta= 0.70
     Davidson diagonalization with overlap
     ethr =  3.65E-05,  avg # of iterations =  3.3

     negative rho (up, down):  9.594E-04 0.000E+00

     total cpu time spent up to now is       25.8 secs

     total energy              =    -448.57148894 Ry
     estimated scf accuracy    <       0.00409360 Ry

     iteration # 25     ecut=   124.00 Ry     beta= 0.70
     Davidson diagonalization with overlap
     ethr =  1.46E-05,  avg # of iterations =  1.6

     negative rho (up, down):  9.666E-04 0.000E+00

     total cpu time spent up to now is       26.8 secs

     total energy              =    -448.57189642 Ry
     estimated scf accuracy    <       0.00011713 Ry

     iteration # 26     ecut=   124.00 Ry     beta= 0.70
     Davidson diagonalization with overlap
     ethr =  4.18E-07,  avg # of iterations =  5.0

     negative rho (up, down):  9.650E-04 0.000E+00

     total cpu time spent up to now is       28.0 secs

     total energy              =    -448.57195169 Ry
     estimated scf accuracy    <       0.00000880 Ry

     iteration # 27     ecut=   124.00 Ry     beta= 0.70
     Davidson diagonalization with overlap
     ethr =  3.14E-08,  avg # of iterations =  2.6

     negative rho (up, down):  9.649E-04 0.000E+00

     total cpu time spent up to now is       29.1 secs

     total energy              =    -448.57195335 Ry
     estimated scf accuracy    <       0.00000036 Ry

     iteration # 28     ecut=   124.00 Ry     beta= 0.70
     Davidson diagonalization with overlap
     ethr =  1.27E-09,  avg # of iterations =  5.1

     negative rho (up, down):  9.651E-04 0.000E+00

     total cpu time spent up to now is       30.4 secs

     total energy              =    -448.57195364 Ry
     estimated scf accuracy    <       0.00000008 Ry

     iteration # 29     ecut=   124.00 Ry     beta= 0.70
     Davidson diagonalization with overlap
     ethr =  2.89E-10,  avg # of iterations =  2.1

     negative rho (up, down):  9.652E-04 0.000E+00

     total cpu time spent up to now is       31.4 secs

     End of self-consistent calculation

          k = 0.0000 0.0000 0.0000 (  3743 PWs)   bands (ev):

   -67.2819 -36.9670 -33.3477 -33.3477 -33.3477 -13.0273 -13.0273 -13.0273
    11.8713  15.3272  15.3272  18.5247  18.5247  18.5247  21.1446  21.1446
    23.3483  23.3483

          k = 0.0000 0.0000 0.0909 (  3699 PWs)   bands (ev):

   -67.2814 -36.9644 -33.3507 -33.3471 -33.3471 -13.0681 -13.0251 -13.0251
    12.0601  15.4194  15.4375  18.5109  18.5109  18.5676  21.0203  21.1926
    23.0599  23.0599

          k = 0.0000 0.0000 0.1818 (  3655 PWs)   bands (ev):

   -67.2802 -36.9574 -33.3587 -33.3454 -33.3454 -13.1763 -13.0192 -13.0192
    12.6049  15.6898  15.7288  18.4801  18.4801  18.6878  20.6623  21.3061
    22.3922  22.3922

          k = 0.0000 0.0000 0.2727 (  3659 PWs)   bands (ev):

   -67.2787 -36.9483 -33.3691 -33.3433 -33.3433 -13.3159 -13.0115 -13.0115
    13.4408  16.0814  16.1169  18.4564  18.4564  18.8590  20.1171  21.3736
    21.6553  21.6553

          k = 0.0000 0.0000 0.3636 (  3635 PWs)   bands (ev):

   -67.2772 -36.9400 -33.3784 -33.3414 -33.3414 -13.4420 -13.0044 -13.0044
    14.4519  16.2987  16.6490  18.4575  18.4575  19.0340  19.4732  21.0508
    21.0508  21.2097

          k = 0.0000 0.0000 0.4545 (  3599 PWs)   bands (ev):

   -67.2764 -36.9351 -33.3839 -33.3402 -33.3402 -13.5160 -13.0002 -13.0002
    15.4332  16.1415  17.1320  18.4734  18.4734  18.9225  19.1485  20.7071
    20.7071  20.8915

          k = 0.0000 0.0909 0.0909 (  3677 PWs)   bands (ev):

   -67.2810 -36.9615 -33.3527 -33.3478 -33.3465 -13.0705 -13.0604 -13.0228
    12.2445  15.5131  15.5422  18.4146  18.4884  18.6802  21.0032  21.1583
    22.7420  22.7737

          k = 0.0000 0.0909 0.1818 (  3655 PWs)   bands (ev):

   -67.2798 -36.9538 -33.3604 -33.3477 -33.3449 -13.1731 -13.0577 -13.0165
    12.7751  15.7633  15.8393  18.3227  18.4343  18.8169  20.7277  21.2577
    22.1263  22.1572

          k = 0.0000 0.0909 0.2727 (  3643 PWs)   bands (ev):

   -67.2782 -36.9437 -33.3708 -33.3470 -33.3428 -13.3108 -13.0487 -13.0083
    13.5845  16.1174  16.2341  18.2756  18.3752  18.9151  20.2631  21.2469
    21.5614  21.5866

          k = 0.0000 0.0909 0.3636 (  3636 PWs)   bands (ev):

   -67.2768 -36.9346 -33.3804 -33.3462 -33.3409 -13.4354 -13.0403 -13.0008
    14.5534  16.3423  16.7031  18.2884  18.3211  18.9188  19.7380  20.7766
    21.2083  21.4385

          k = 0.0000 0.0909 0.4545 (  3630 PWs)   bands (ev):

   -67.2759 -36.9291 -33.3860 -33.3458 -33.3397 -13.5085 -13.0353 -12.9963
    15.4799  16.1786  17.1354  18.2399  18.3393  18.8481  19.3699  20.4560
    21.0593  21.2448

          k = 0.0000 0.1818 0.1818 (  3659 PWs)   bands (ev):

   -67.2786 -36.9441 -33.3662 -33.3524 -33.3433 -13.1762 -13.1481 -13.0093
    13.2592  15.9364  16.1660  18.1210  18.3322  18.9104  20.7919  21.2080
    21.5449  21.7830

          k = 0.0000 0.1818 0.2727 (  3646 PWs)   bands (ev):

   -67.2771 -36.9315 -33.3760 -33.3564 -33.3413 -13.2976 -13.1471 -12.9998
    13.9769  16.1490  16.6101  17.9829  18.2414  18.8242  20.5837  20.9450
    21.3938  21.5805

          k = 0.0000 0.1818 0.3636 (  3640 PWs)   bands (ev):

   -67.2756 -36.9199 -33.3857 -33.3592 -33.3395 -13.4177 -13.1357 -12.9911
    14.7910  16.2629  17.0500  17.9449  18.2251  18.5790  20.2344  20.5708
    21.5673  21.6096

          k = 0.0000 0.1818 0.4545 (  3630 PWs)   bands (ev):

   -67.2748 -36.9131 -33.3915 -33.3608 -33.3384 -13.4884 -13.1287 -12.9859
    15.4994  16.1243  17.3518  18.0106  18.2852  18.3204  20.0438  20.3026
    21.6265  21.7264

          k = 0.0000 0.2727 0.2727 (  3628 PWs)   bands (ev):

   -67.2755 -36.9155 -33.3840 -33.3674 -33.3394 -13.2936 -13.2608 -12.9886
    14.5035  16.1429  17.1368  17.7436  18.2194  18.5159  20.6972  20.8454
    21.2928  21.7824

          k = 0.0000 0.2727 0.3636 (  3635 PWs)   bands (ev):

   -67.2741 -36.9007 -33.3930 -33.3759 -33.3377 -13.3947 -13.2586 -12.9783
    15.0016  16.0561  17.6195  17.6527  18.1408  18.4385  20.5007  20.8270
    21.5051  22.1030

          k = 0.0000 0.2727 0.4545 (  3640 PWs)   bands (ev):

   -67.2733 -36.8919 -33.3989 -33.3804 -33.3367 -13.4620 -13.2493 -12.9722
    15.3343  15.9183  17.6382  17.8353  17.9384  18.8666  20.2393  20.7671
    21.7863  22.3905

          k = 0.0000 0.3636 0.3636 (  3636 PWs)   bands (ev):

   -67.2727 -36.8829 -33.4004 -33.3906 -33.3361 -13.3812 -13.3622 -12.9666
    15.0848  15.8436  17.4062  17.7419  18.3455  18.9328  20.6707  21.2332
    21.3351  22.5687

          k = 0.0000 0.3636 0.4545 (  3635 PWs)   bands (ev):

   -67.2719 -36.8723 -33.4058 -33.3983 -33.3351 -13.4376 -13.3586 -12.9596
    15.0919  15.7133  17.3486  17.4656  18.7730  19.6534  20.4171  21.3138
    21.6024  22.9184

          k = 0.0000 0.4545 0.4545 (  3624 PWs)   bands (ev):

   -67.2710 -36.8605 -33.4101 -33.4087 -33.3342 -13.4243 -13.4216 -12.9521
    14.9343  15.5944  17.2104  17.2499  19.5305  20.1037  20.9090  21.1188
    21.6127  23.2309

          k = 0.0909 0.0909 0.0909 (  3656 PWs)   bands (ev):

   -67.2806 -36.9584 -33.3521 -33.3521 -33.3454 -13.0718 -13.0582 -13.0582
    12.4252  15.6252  15.6252  18.3895  18.3895  18.7724  21.0651  21.0651
    22.2653  23.0368

          k = 0.0909 0.0909 0.1818 (  3662 PWs)   bands (ev):

   -67.2794 -36.9500 -33.3610 -33.3504 -33.3452 -13.1697 -13.0575 -13.0521
    12.9440  15.8669  15.9188  18.2631  18.3236  18.8707  20.7968  21.2128
    21.7248  22.3674

          k = 0.0909 0.0909 0.2727 (  3646 PWs)   bands (ev):

   -67.2778 -36.9392 -33.3721 -33.3482 -33.3452 -13.3059 -13.0466 -13.0443
    13.7309  16.2428  16.2636  18.2007  18.2347  18.8654  20.3935  21.1746
    21.5147  21.6439

          k = 0.0909 0.0909 0.3636 (  3632 PWs)   bands (ev):

   -67.2764 -36.9292 -33.3820 -33.3462 -33.3454 -13.4291 -13.0370 -13.0364
    14.6637  16.4436  16.6987  18.1240  18.2443  18.7610  19.9472  20.8778
    21.0678  21.6496

          k = 0.0909 0.0909 0.4545 (  3625 PWs)   bands (ev):

   -67.2755 -36.9233 -33.3878 -33.3456 -33.3450 -13.5014 -13.0327 -13.0304
    15.5448  16.2474  17.0989  17.9833  18.3881  18.6528  19.6320  20.5836
    20.7507  21.7832

          k = 0.0909 0.1818 0.1818 (  3660 PWs)   bands (ev):

   -67.2782 -36.9400 -33.3656 -33.3550 -33.3456 -13.1716 -13.1458 -13.0469
    13.4234  16.0590  16.2214  18.0799  18.2033  18.8332  20.8740  21.1744
    21.4087  22.0428

          k = 0.0909 0.1818 0.2727 (  3639 PWs)   bands (ev):

   -67.2766 -36.9268 -33.3760 -33.3573 -33.3454 -13.2928 -13.1438 -13.0367
    14.1310  16.2849  16.6323  17.9353  18.1021  18.6226  20.6914  21.0866
    21.4282  21.6562

          k = 0.0909 0.1818 0.3636 (  3631 PWs)   bands (ev):

   -67.2752 -36.9148 -33.3864 -33.3591 -33.3446 -13.4121 -13.1323 -13.0272
    14.9261  16.4096  16.9935  17.8586  18.1084  18.4075  20.4087  20.7086
    21.2849  21.9791

          k = 0.0909 0.1818 0.4545 (  3634 PWs)   bands (ev):

   -67.2743 -36.9076 -33.3927 -33.3603 -33.3439 -13.4824 -13.1253 -13.0214
    15.6110  16.2501  17.2273  17.7997  18.2103  18.3754  20.2147  20.3896
    21.0634  22.4396

          k = 0.0909 0.2727 0.2727 (  3646 PWs)   bands (ev):

   -67.2751 -36.9106 -33.3833 -33.3684 -33.3443 -13.2880 -13.2584 -13.0252
    14.6658  16.2847  17.1464  17.7026  18.0603  18.2766  20.8319  21.0189
    21.2744  21.9475

          k = 0.0909 0.2727 0.3636 (  3635 PWs)   bands (ev):

   -67.2737 -36.8957 -33.3927 -33.3760 -33.3430 -13.3902 -13.2555 -13.0146
    15.1604  16.1987  17.5422  17.6085  18.0205  18.2736  20.5955  20.9282
    21.3630  22.4273

          k = 0.0909 0.2727 0.4545 (  3640 PWs)   bands (ev):

   -67.2728 -36.8868 -33.3992 -33.3798 -33.3422 -13.4574 -13.2464 -13.0082
    15.4761  16.0597  17.5435  17.6209  18.0115  18.7498  20.2851  20.8845
    21.2983  22.9757

          k = 0.0909 0.3636 0.3636 (  3635 PWs)   bands (ev):

   -67.2723 -36.8782 -33.3996 -33.3906 -33.3415 -13.3770 -13.3600 -13.0030
    15.2440  15.9859  17.3737  17.6432  18.3003  18.7341  20.6143  21.1970
    21.3449  22.9376

          k = 0.0909 0.3636 0.4545 (  3637 PWs)   bands (ev):

   -67.2714 -36.8677 -33.4054 -33.3976 -33.3405 -13.4344 -13.3560 -12.9960
    15.2409  15.8584  17.3148  17.4106  18.6966  19.4547  20.3558  21.1658
    21.4543  23.1853

          k = 0.0909 0.4545 0.4545 (  3621 PWs)   bands (ev):

   -67.2706 -36.8562 -33.4093 -33.4080 -33.3395 -13.4218 -13.4194 -12.9888
    15.0848  15.7405  17.1881  17.2227  19.4747  19.9738  20.5779  20.7159
    21.6970  23.4345

          k = 0.1818 0.1818 0.1818 (  3656 PWs)   bands (ev):

   -67.2770 -36.9288 -33.3638 -33.3638 -33.3499 -13.1663 -13.1396 -13.1396
    13.8861  16.3787  16.3787  17.9709  17.9709  18.5373  21.0751  21.0751
    21.4830  22.3210

          k = 0.1818 0.1818 0.2727 (  3647 PWs)   bands (ev):

   -67.2755 -36.9142 -33.3767 -33.3614 -33.3540 -13.2802 -13.1380 -13.1314
    14.5542  16.6099  16.7263  17.8198  17.8268  18.1758  20.9237  21.1879
    21.6261  21.8388

          k = 0.1818 0.1818 0.3636 (  3639 PWs)   bands (ev):

   -67.2740 -36.9008 -33.3887 -33.3593 -33.3575 -13.3974 -13.1239 -13.1223
    15.2676  16.7635  16.8657  17.6789  17.8773  18.0922  20.7623  20.9200
    21.0866  22.4869

          k = 0.1818 0.1818 0.4545 (  3639 PWs)   bands (ev):

   -67.2732 -36.8928 -33.3959 -33.3595 -33.3580 -13.4663 -13.1195 -13.1128
    15.8374  16.4701  17.0649  17.5589  18.0232  18.3323  20.4724  20.6636
    20.7853  22.8811

          k = 0.1818 0.2727 0.2727 (  3640 PWs)   bands (ev):

   -67.2739 -36.8977 -33.3813 -33.3713 -33.3570 -13.2732 -13.2522 -13.1225
    15.1175  16.6697  17.1659  17.5995  17.7022  17.7959  20.9745  21.1917
    21.4986  22.3938

          k = 0.1818 0.2727 0.3636 (  3628 PWs)   bands (ev):

   -67.2725 -36.8824 -33.3924 -33.3761 -33.3571 -13.3781 -13.2470 -13.1110
    15.6005  16.5698  17.3117  17.4840  17.8027  17.9235  20.7234  21.0056
    21.3743  22.7019

          k = 0.1818 0.2727 0.4545 (  3625 PWs)   bands (ev):

   -67.2717 -36.8733 -33.4002 -33.3781 -33.3567 -13.4453 -13.2385 -13.1040
    15.8564  16.4015  17.2594  17.4373  17.9251  18.4758  20.3441  20.8124
    21.2667  22.9605

          k = 0.1818 0.3636 0.3636 (  3630 PWs)   bands (ev):

   -67.2711 -36.8654 -33.3975 -33.3909 -33.3558 -13.3658 -13.3538 -13.0998
    15.6974  16.3546  17.2940  17.4352  18.1579  18.2373  20.5768  20.8651
    21.6778  22.8853

          k = 0.1818 0.3636 0.4545 (  3633 PWs)   bands (ev):

   -67.2703 -36.8553 -33.4043 -33.3959 -33.3549 -13.4259 -13.3492 -13.0930
    15.6625  16.2343  17.2344  17.2971  18.4367  18.9454  20.2816  20.6776
    21.7668  23.1647

          k = 0.1818 0.4545 0.4545 (  3625 PWs)   bands (ev):

   -67.2695 -36.8445 -33.4070 -33.4061 -33.3538 -13.4151 -13.4135 -13.0864
    15.5154  16.1284  17.1370  17.1636  19.1938  19.3553  20.1683  20.3524
    21.9887  23.4937

          k = 0.2727 0.2727 0.2727 (  3632 PWs)   bands (ev):

   -67.2724 -36.8806 -33.3787 -33.3787 -33.3699 -13.2577 -13.2440 -13.2440
    15.7250  17.1726  17.1726  17.2539  17.4819  17.4819  20.9951  20.9951
    22.0309  22.0309

          k = 0.2727 0.2727 0.3636 (  3637 PWs)   bands (ev):

   -67.2710 -36.8648 -33.3926 -33.3764 -33.3748 -13.3626 -13.2364 -13.2347
    16.1597  16.8563  17.1511  17.3966  17.5116  17.7547  20.7235  20.7533
    21.8540  22.6001

          k = 0.2727 0.2727 0.4545 (  3625 PWs)   bands (ev):

   -67.2702 -36.8554 -33.4016 -33.3768 -33.3750 -13.4294 -13.2319 -13.2240
    16.2463  16.6482  17.1239  17.3565  17.7671  18.2778  20.2804  20.6059
    21.7917  22.9958

          k = 0.2727 0.3636 0.3636 (  3633 PWs)   bands (ev):

   -67.2696 -36.8486 -33.3947 -33.3912 -33.3746 -13.3511 -13.3458 -13.2248
    16.3519  16.7386  17.2108  17.3539  17.6723  17.9207  20.5231  20.5390
    22.2039  22.8262

          k = 0.2727 0.3636 0.4545 (  3635 PWs)   bands (ev):

   -67.2688 -36.8390 -33.4030 -33.3935 -33.3738 -13.4148 -13.3402 -13.2182
    16.2551  16.6500  17.1666  17.2669  18.0134  18.4017  20.1614  20.4291
    22.2761  23.2024

          k = 0.2727 0.4545 0.4545 (  3635 PWs)   bands (ev):

   -67.2680 -36.8291 -33.4041 -33.4036 -33.3726 -13.4064 -13.4057 -13.2125
    16.1539  16.6131  17.0984  17.1385  18.5993  18.6131  19.9604  20.2572
    22.4838  23.5358

          k = 0.3636 0.3636 0.3636 (  3638 PWs)   bands (ev):

   -67.2683 -36.8331 -33.3921 -33.3921 -33.3912 -13.3384 -13.3384 -13.3371
    16.6733  17.1750  17.1750  17.2517  17.6382  17.6382  20.3325  20.3325
    22.8321  22.8321

          k = 0.3636 0.3636 0.4545 (  3636 PWs)   bands (ev):

   -67.2675 -36.8239 -33.4020 -33.3917 -33.3906 -13.4045 -13.3340 -13.3295
    16.6756  16.9035  17.2260  17.3906  17.6917  18.0392  20.0465  20.2422
    22.8467  23.3067

          k = 0.3636 0.4545 0.4545 (  3632 PWs)   bands (ev):

   -67.2666 -36.8149 -33.4014 -33.4013 -33.3897 -13.3985 -13.3984 -13.3267
    16.7984  17.0110  17.1239  17.2755  17.9785  18.0222  19.9099  20.0956
    23.1033  23.5699

          k = 0.4545 0.4545 0.4545 (  3608 PWs)   bands (ev):

   -67.2658 -36.8065 -33.4000 -33.3998 -33.3998 -13.3942 -13.3942 -13.3933
    17.0755  17.2571  17.2571  17.5746  17.5746  17.6395  19.8981  19.8981
    23.5895  23.5895

     the Fermi energy is    19.6491 ev

!    total energy              =    -448.57195364 Ry
     estimated scf accuracy    <          7.8E-09 Ry
     smearing contrib. (-TS)   =      -0.00003877 Ry
     internal energy E=F+TS    =    -448.57191488 Ry

     The total energy is F=E-TS. E is the sum of the following terms:
     one-electron contribution =    -138.76257967 Ry
     hartree contribution      =      87.43967980 Ry
     xc contribution           =     -53.06390037 Ry
     ewald contribution        =    -268.02936898 Ry
     one-center paw contrib.   =     -76.15574566 Ry

     convergence has been achieved in  29 iterations

     negative rho (up, down):  9.652E-04 0.000E+00

     Forces acting on atoms (cartesian axes, Ry/au):

     atom    1 type  1   force =     0.00000000    0.00000000    0.00000000
     atom    2 type  2   force =     0.00000000    0.00000000    0.00000000

     Total force =     0.000000     Total SCF correction =     0.000000


     Computing stress (Cartesian axis) and pressure


     negative rho (up, down):  9.652E-04 0.000E+00
          total   stress  (Ry/bohr**3)                   (kbar)     P=      262.39
   0.00178372   0.00000000   0.00000000          262.39        0.00        0.00
   0.00000000   0.00178372   0.00000000            0.00      262.39        0.00
   0.00000000   0.00000000   0.00178372            0.00        0.00      262.39


     Writing all to output data dir ./TiFe.save/ :
     XML data file, charge density, pseudopotentials, collected wavefunctions

     init_run     :      1.45s CPU      1.52s WALL (       1 calls)
     electrons    :     27.86s CPU     29.68s WALL (       1 calls)
     forces       :      0.22s CPU      0.24s WALL (       1 calls)
     stress       :      1.29s CPU      1.34s WALL (       1 calls)

     Called by init_run:
     wfcinit      :      0.30s CPU      0.32s WALL (       1 calls)
     potinit      :      0.37s CPU      0.38s WALL (       1 calls)
     hinit0       :      0.63s CPU      0.65s WALL (       1 calls)

     Called by electrons:
     c_bands      :     16.92s CPU     17.31s WALL (      29 calls)
     sum_band     :      5.73s CPU      6.35s WALL (      29 calls)
     v_of_rho     :      0.52s CPU      0.57s WALL (      30 calls)
     newd         :      3.09s CPU      3.68s WALL (      30 calls)
     PAW_pot      :      1.67s CPU      1.84s WALL (      30 calls)
     mix_rho      :      0.06s CPU      0.07s WALL (      29 calls)

     Called by c_bands:
     init_us_2    :      0.47s CPU      0.49s WALL (    3416 calls)
     cegterg      :     16.02s CPU     16.39s WALL (    1624 calls)

     Called by *egterg:
     cdiaghg      :      1.87s CPU      1.90s WALL (    5362 calls)
     h_psi        :     12.27s CPU     12.57s WALL (    5418 calls)
     s_psi        :      0.33s CPU      0.34s WALL (    5418 calls)
     g_psi        :      0.07s CPU      0.07s WALL (    3738 calls)

     Called by h_psi:
     h_psi:calbec :      0.63s CPU      0.64s WALL (    5418 calls)
     vloc_psi     :     11.22s CPU     11.50s WALL (    5418 calls)
     add_vuspsi   :      0.34s CPU      0.35s WALL (    5418 calls)

     General routines
     calbec       :      0.91s CPU      0.93s WALL (    7994 calls)
     fft          :      0.79s CPU      0.87s WALL (     413 calls)
     ffts         :      0.29s CPU      0.29s WALL (      59 calls)
     fftw         :     10.76s CPU     11.02s WALL (  170582 calls)
     interpolate  :      0.30s CPU      0.32s WALL (      30 calls)

     Parallel routines

     PWSCF        :     31.11s CPU     33.24s WALL


   This run was terminated on:   0:37: 8  25Oct2025            

=------------------------------------------------------------------------------=
   JOB DONE.
=------------------------------------------------------------------------------=
