
     Program PWSCF v.7.4 starts on 25Oct2025 at  2:20:42 

     This program is part of the open-source Quantum ESPRESSO suite
     for quantum simulation of materials; please cite
         "P. Giannozzi et al., J. Phys.:Condens. Matter 21 395502 (2009);
         "P. Giannozzi et al., J. Phys.:Condens. Matter 29 465901 (2017);
         "P. Giannozzi et al., J. Chem. Phys. 152 154105 (2020);
          URL http://www.quantum-espresso.org", 
     in publications or presentations arising from this work. More details at
     http://www.quantum-espresso.org/quote

     Parallel version (MPI & OpenMP), running on       8 processor cores
     Number of MPI processes:                 8
     Threads/MPI process:                     1

     MPI processes distributed on     1 nodes
     226172 MiB available memory on the printing compute node when the environment starts

     Reading input from TiFe.in

     Current dimensions of program PWSCF are:
     Max number of different atomic species (ntypx) = 10
     Max number of k-points (npk) =  40000
     Max angular momentum in pseudopotentials (lmaxx) =  4
     file Fe.pbe-spn-kjpaw_psl.0.2.1.UPF: wavefunction(s)  3D renormalized

     IMPORTANT: XC functional enforced from input :
     Exchange-correlation= PBE
                           (   1   4   3   4   0   0   0)
     Any further DFT definition will be discarded
     Please, verify this is what you really want

     Message from routine setup:
     using ibrav=0 with symmetry is DISCOURAGED, use correct ibrav instead

     R & G space division:  proc/nbgrp/npool/nimage =       8
     Subspace diagonalization in iterative solution of the eigenvalue problem:
     a serial algorithm will be used


     Parallelization info
     --------------------
     sticks:   dense  smooth     PW     G-vecs:    dense   smooth      PW
     Min         532     151     43                26154     3989     617
     Max         533     152     44                26155     3993     620
     Sum        4257    1209    349               209233    31919    4945

     Using Slab Decomposition



     bravais-lattice index     =            0
     lattice parameter (alat)  =       5.5533  a.u.
     unit-cell volume          =     171.2590 (a.u.)^3
     number of atoms/cell      =            2
     number of atomic types    =            2
     number of electrons       =        28.00
     number of Kohn-Sham states=           18
     kinetic-energy cutoff     =     124.0000  Ry
     charge density cutoff     =    1736.0000  Ry
     scf convergence threshold =      1.0E-08
     mixing beta               =       0.7000
     number of iterations used =            8  plain     mixing
     Exchange-correlation= PBE
                           (   1   4   3   4   0   0   0)

     celldm(1)=   5.553300  celldm(2)=   0.000000  celldm(3)=   0.000000
     celldm(4)=   0.000000  celldm(5)=   0.000000  celldm(6)=   0.000000

     crystal axes: (cart. coord. in units of alat)
               a(1) = (   1.000000   0.000000   0.000000 )  
               a(2) = (   0.000000   1.000000   0.000000 )  
               a(3) = (   0.000000   0.000000   1.000000 )  

     reciprocal axes: (cart. coord. in units 2 pi/alat)
               b(1) = (  1.000000  0.000000  0.000000 )  
               b(2) = (  0.000000  1.000000  0.000000 )  
               b(3) = (  0.000000  0.000000  1.000000 )  


     PseudoPot. # 1 for Fe read from file:
     ../../pseudos/Fe.pbe-spn-kjpaw_psl.0.2.1.UPF
     MD5 check sum: e86618425769142926afa95317d90200
     Pseudo is Projector augmented-wave + core cor, Zval = 16.0
     Generated using "atomic" code by A. Dal Corso  v.5.0.99 svn rev. 10869
     Shape of augmentation charge: PSQ
     Using radial grid of 1191 points,  6 beta functions with: 
                l(1) =   0
                l(2) =   0
                l(3) =   1
                l(4) =   1
                l(5) =   2
                l(6) =   2
     Q(r) pseudized with 0 coefficients 


     PseudoPot. # 2 for Ti read from file:
     ../../pseudos/ti_pbe_v1.4.uspp.F.UPF
     MD5 check sum: 88a00a6731bd790ddea75d31a80cb452
     Pseudo is Ultrasoft + core correction, Zval = 12.0
     Generated by new atomic code, or converted to UPF format
     Using radial grid of  851 points,  6 beta functions with: 
                l(1) =   0
                l(2) =   0
                l(3) =   1
                l(4) =   1
                l(5) =   2
                l(6) =   2
     Q(r) pseudized with  6 coefficients,  rinner =    1.000   1.000   1.000
                                                       1.000   1.000

     atomic species   valence    mass     pseudopotential
     Fe               16.00    55.84500     Fe( 1.00)
     Ti               12.00    47.86700     Ti( 1.00)

     48 Sym. Ops., with inversion, found



   Cartesian axes

     site n.     atom                  positions (alat units)
         1        Fe     tau(   1) = (   0.5000000   0.5000000   0.5000000  )
         2        Ti     tau(   2) = (   0.0000000   0.0000000   0.0000000  )

     number of k points=    56  Marzari-Vanderbilt smearing, width (Ry)=  0.0050
                       cart. coord. in units 2pi/alat
        k(    1) = (   0.0000000   0.0000000   0.0000000), wk =   0.0015026
        k(    2) = (   0.0000000   0.0000000   0.0909091), wk =   0.0090158
        k(    3) = (   0.0000000   0.0000000   0.1818182), wk =   0.0090158
        k(    4) = (   0.0000000   0.0000000   0.2727273), wk =   0.0090158
        k(    5) = (   0.0000000   0.0000000   0.3636364), wk =   0.0090158
        k(    6) = (   0.0000000   0.0000000   0.4545455), wk =   0.0090158
        k(    7) = (   0.0000000   0.0909091   0.0909091), wk =   0.0180316
        k(    8) = (   0.0000000   0.0909091   0.1818182), wk =   0.0360631
        k(    9) = (   0.0000000   0.0909091   0.2727273), wk =   0.0360631
        k(   10) = (   0.0000000   0.0909091   0.3636364), wk =   0.0360631
        k(   11) = (   0.0000000   0.0909091   0.4545455), wk =   0.0360631
        k(   12) = (   0.0000000   0.1818182   0.1818182), wk =   0.0180316
        k(   13) = (   0.0000000   0.1818182   0.2727273), wk =   0.0360631
        k(   14) = (   0.0000000   0.1818182   0.3636364), wk =   0.0360631
        k(   15) = (   0.0000000   0.1818182   0.4545455), wk =   0.0360631
        k(   16) = (   0.0000000   0.2727273   0.2727273), wk =   0.0180316
        k(   17) = (   0.0000000   0.2727273   0.3636364), wk =   0.0360631
        k(   18) = (   0.0000000   0.2727273   0.4545455), wk =   0.0360631
        k(   19) = (   0.0000000   0.3636364   0.3636364), wk =   0.0180316
        k(   20) = (   0.0000000   0.3636364   0.4545455), wk =   0.0360631
        k(   21) = (   0.0000000   0.4545455   0.4545455), wk =   0.0180316
        k(   22) = (   0.0909091   0.0909091   0.0909091), wk =   0.0120210
        k(   23) = (   0.0909091   0.0909091   0.1818182), wk =   0.0360631
        k(   24) = (   0.0909091   0.0909091   0.2727273), wk =   0.0360631
        k(   25) = (   0.0909091   0.0909091   0.3636364), wk =   0.0360631
        k(   26) = (   0.0909091   0.0909091   0.4545455), wk =   0.0360631
        k(   27) = (   0.0909091   0.1818182   0.1818182), wk =   0.0360631
        k(   28) = (   0.0909091   0.1818182   0.2727273), wk =   0.0721262
        k(   29) = (   0.0909091   0.1818182   0.3636364), wk =   0.0721262
        k(   30) = (   0.0909091   0.1818182   0.4545455), wk =   0.0721262
        k(   31) = (   0.0909091   0.2727273   0.2727273), wk =   0.0360631
        k(   32) = (   0.0909091   0.2727273   0.3636364), wk =   0.0721262
        k(   33) = (   0.0909091   0.2727273   0.4545455), wk =   0.0721262
        k(   34) = (   0.0909091   0.3636364   0.3636364), wk =   0.0360631
        k(   35) = (   0.0909091   0.3636364   0.4545455), wk =   0.0721262
        k(   36) = (   0.0909091   0.4545455   0.4545455), wk =   0.0360631
        k(   37) = (   0.1818182   0.1818182   0.1818182), wk =   0.0120210
        k(   38) = (   0.1818182   0.1818182   0.2727273), wk =   0.0360631
        k(   39) = (   0.1818182   0.1818182   0.3636364), wk =   0.0360631
        k(   40) = (   0.1818182   0.1818182   0.4545455), wk =   0.0360631
        k(   41) = (   0.1818182   0.2727273   0.2727273), wk =   0.0360631
        k(   42) = (   0.1818182   0.2727273   0.3636364), wk =   0.0721262
        k(   43) = (   0.1818182   0.2727273   0.4545455), wk =   0.0721262
        k(   44) = (   0.1818182   0.3636364   0.3636364), wk =   0.0360631
        k(   45) = (   0.1818182   0.3636364   0.4545455), wk =   0.0721262
        k(   46) = (   0.1818182   0.4545455   0.4545455), wk =   0.0360631
        k(   47) = (   0.2727273   0.2727273   0.2727273), wk =   0.0120210
        k(   48) = (   0.2727273   0.2727273   0.3636364), wk =   0.0360631
        k(   49) = (   0.2727273   0.2727273   0.4545455), wk =   0.0360631
        k(   50) = (   0.2727273   0.3636364   0.3636364), wk =   0.0360631
        k(   51) = (   0.2727273   0.3636364   0.4545455), wk =   0.0721262
        k(   52) = (   0.2727273   0.4545455   0.4545455), wk =   0.0360631
        k(   53) = (   0.3636364   0.3636364   0.3636364), wk =   0.0120210
        k(   54) = (   0.3636364   0.3636364   0.4545455), wk =   0.0360631
        k(   55) = (   0.3636364   0.4545455   0.4545455), wk =   0.0360631
        k(   56) = (   0.4545455   0.4545455   0.4545455), wk =   0.0120210

     Dense  grid:   209233 G-vectors     FFT dimensions: (  75,  75,  75)

     Smooth grid:    31919 G-vectors     FFT dimensions: (  40,  40,  40)

     Estimated max dynamical RAM per process >     110.35 MB

     Estimated total dynamical RAM >     882.79 MB

     Check: negative core charge=   -0.000002

     Initial potential from superposition of free atoms

     starting charge      26.9995, renormalised to      28.0000

     negative rho (up, down):  1.347E-03 0.000E+00
     Starting wfcs are   23 randomized atomic wfcs
     Checking if some PAW data can be deallocated... 

     total cpu time spent up to now is        1.5 secs

     per-process dynamical memory:   135.1 Mb

     Self-consistent Calculation

     iteration #  1     ecut=   124.00 Ry     beta= 0.70
     Davidson diagonalization with overlap
     ethr =  1.00E-02,  avg # of iterations =  2.1

     negative rho (up, down):  7.937E-05 0.000E+00

     total cpu time spent up to now is        2.5 secs

     total energy              =    -434.89047275 Ry
     estimated scf accuracy    <      17.46535633 Ry

     iteration #  2     ecut=   124.00 Ry     beta= 0.70
     Davidson diagonalization with overlap
     ethr =  1.00E-02,  avg # of iterations =  6.0

     negative rho (up, down):  2.353E-05 0.000E+00

     total cpu time spent up to now is        4.0 secs

     total energy              =    -448.51249463 Ry
     estimated scf accuracy    <      66.10195194 Ry

     iteration #  3     ecut=   124.00 Ry     beta= 0.70
     Davidson diagonalization with overlap
     ethr =  1.00E-02,  avg # of iterations =  3.1

     negative rho (up, down):  2.377E-04 0.000E+00

     total cpu time spent up to now is        5.1 secs

     total energy              =    -448.59203340 Ry
     estimated scf accuracy    <      16.77106202 Ry

     iteration #  4     ecut=   124.00 Ry     beta= 0.70
     Davidson diagonalization with overlap
     ethr =  1.00E-02,  avg # of iterations =  2.2

     negative rho (up, down):  2.766E-04 0.000E+00

     total cpu time spent up to now is        6.1 secs

     total energy              =    -449.11252552 Ry
     estimated scf accuracy    <       4.68111793 Ry

     iteration #  5     ecut=   124.00 Ry     beta= 0.70
     Davidson diagonalization with overlap
     ethr =  1.00E-02,  avg # of iterations =  1.0

     negative rho (up, down):  3.285E-04 0.000E+00

     total cpu time spent up to now is        7.0 secs

     total energy              =    -449.11683000 Ry
     estimated scf accuracy    <       4.27451567 Ry

     iteration #  6     ecut=   124.00 Ry     beta= 0.70
     Davidson diagonalization with overlap
     ethr =  1.00E-02,  avg # of iterations =  1.0

     negative rho (up, down):  1.118E-03 0.000E+00

     total cpu time spent up to now is        7.8 secs

     total energy              =    -447.89068457 Ry
     estimated scf accuracy    <       4.50163493 Ry

     iteration #  7     ecut=   124.00 Ry     beta= 0.70
     Davidson diagonalization with overlap
     ethr =  1.00E-02,  avg # of iterations =  3.4

     negative rho (up, down):  1.015E-03 0.000E+00

     total cpu time spent up to now is        8.8 secs

     total energy              =    -448.58840447 Ry
     estimated scf accuracy    <       3.89651472 Ry

     iteration #  8     ecut=   124.00 Ry     beta= 0.70
     Davidson diagonalization with overlap
     ethr =  1.00E-02,  avg # of iterations =  1.0

     negative rho (up, down):  7.976E-04 0.000E+00

     total cpu time spent up to now is        9.7 secs

     total energy              =    -448.43997417 Ry
     estimated scf accuracy    <       1.27715295 Ry

     iteration #  9     ecut=   124.00 Ry     beta= 0.70
     Davidson diagonalization with overlap
     ethr =  4.56E-03,  avg # of iterations =  1.9

     negative rho (up, down):  7.977E-04 0.000E+00

     total cpu time spent up to now is       10.5 secs

     total energy              =    -448.60539805 Ry
     estimated scf accuracy    <       0.26863249 Ry

     iteration # 10     ecut=   124.00 Ry     beta= 0.70
     Davidson diagonalization with overlap
     ethr =  9.59E-04,  avg # of iterations =  1.3

     negative rho (up, down):  8.075E-04 0.000E+00

     total cpu time spent up to now is       11.4 secs

     total energy              =    -448.61289738 Ry
     estimated scf accuracy    <       0.28159432 Ry

     iteration # 11     ecut=   124.00 Ry     beta= 0.70
     Davidson diagonalization with overlap
     ethr =  9.59E-04,  avg # of iterations =  1.0

     negative rho (up, down):  7.617E-04 0.000E+00

     total cpu time spent up to now is       12.3 secs

     total energy              =    -448.67957078 Ry
     estimated scf accuracy    <       0.34549008 Ry

     iteration # 12     ecut=   124.00 Ry     beta= 0.70
     Davidson diagonalization with overlap
     ethr =  9.59E-04,  avg # of iterations =  1.8

     negative rho (up, down):  7.932E-04 0.000E+00

     total cpu time spent up to now is       13.1 secs

     total energy              =    -448.62277485 Ry
     estimated scf accuracy    <       1.28404054 Ry

     iteration # 13     ecut=   124.00 Ry     beta= 0.70
     Davidson diagonalization with overlap
     ethr =  9.59E-04,  avg # of iterations =  1.2

     negative rho (up, down):  9.274E-04 0.000E+00

     total cpu time spent up to now is       14.0 secs

     total energy              =    -448.63537755 Ry
     estimated scf accuracy    <       0.58154385 Ry

     iteration # 14     ecut=   124.00 Ry     beta= 0.70
     Davidson diagonalization with overlap
     ethr =  9.59E-04,  avg # of iterations =  1.0

     negative rho (up, down):  1.025E-03 0.000E+00

     total cpu time spent up to now is       14.8 secs

     total energy              =    -448.61055071 Ry
     estimated scf accuracy    <       0.50368914 Ry

     iteration # 15     ecut=   124.00 Ry     beta= 0.70
     Davidson diagonalization with overlap
     ethr =  9.59E-04,  avg # of iterations =  1.0

     negative rho (up, down):  1.032E-03 0.000E+00

     total cpu time spent up to now is       15.7 secs

     total energy              =    -448.61143942 Ry
     estimated scf accuracy    <       0.31963621 Ry

     iteration # 16     ecut=   124.00 Ry     beta= 0.70
     Davidson diagonalization with overlap
     ethr =  9.59E-04,  avg # of iterations =  1.0

     negative rho (up, down):  1.077E-03 0.000E+00

     total cpu time spent up to now is       16.5 secs

     total energy              =    -448.59313187 Ry
     estimated scf accuracy    <       0.28283031 Ry

     iteration # 17     ecut=   124.00 Ry     beta= 0.70
     Davidson diagonalization with overlap
     ethr =  9.59E-04,  avg # of iterations =  1.0

     negative rho (up, down):  1.074E-03 0.000E+00

     total cpu time spent up to now is       17.4 secs

     total energy              =    -448.60188466 Ry
     estimated scf accuracy    <       0.07727334 Ry

     iteration # 18     ecut=   124.00 Ry     beta= 0.70
     Davidson diagonalization with overlap
     ethr =  2.76E-04,  avg # of iterations =  1.6

     negative rho (up, down):  9.925E-04 0.000E+00

     total cpu time spent up to now is       18.3 secs

     total energy              =    -448.58361171 Ry
     estimated scf accuracy    <       0.14906512 Ry

     iteration # 19     ecut=   124.00 Ry     beta= 0.70
     Davidson diagonalization with overlap
     ethr =  2.76E-04,  avg # of iterations =  1.1

     negative rho (up, down):  9.436E-04 0.000E+00

     total cpu time spent up to now is       19.1 secs

     total energy              =    -448.59412596 Ry
     estimated scf accuracy    <       0.04848602 Ry

     iteration # 20     ecut=   124.00 Ry     beta= 0.70
     Davidson diagonalization with overlap
     ethr =  1.73E-04,  avg # of iterations =  1.1

     negative rho (up, down):  1.023E-03 0.000E+00

     total cpu time spent up to now is       20.0 secs

     total energy              =    -448.57755582 Ry
     estimated scf accuracy    <       0.17402919 Ry

     iteration # 21     ecut=   124.00 Ry     beta= 0.70
     Davidson diagonalization with overlap
     ethr =  1.73E-04,  avg # of iterations =  2.1

     negative rho (up, down):  1.012E-03 0.000E+00

     total cpu time spent up to now is       20.9 secs

     total energy              =    -448.58650556 Ry
     estimated scf accuracy    <       0.00384583 Ry

     iteration # 22     ecut=   124.00 Ry     beta= 0.70
     Davidson diagonalization with overlap
     ethr =  1.37E-05,  avg # of iterations =  4.6

     negative rho (up, down):  1.004E-03 0.000E+00

     total cpu time spent up to now is       21.9 secs

     total energy              =    -448.58691254 Ry
     estimated scf accuracy    <       0.00198474 Ry

     iteration # 23     ecut=   124.00 Ry     beta= 0.70
     Davidson diagonalization with overlap
     ethr =  7.09E-06,  avg # of iterations =  1.5

     negative rho (up, down):  1.006E-03 0.000E+00

     total cpu time spent up to now is       22.8 secs

     total energy              =    -448.58700272 Ry
     estimated scf accuracy    <       0.00176934 Ry

     iteration # 24     ecut=   124.00 Ry     beta= 0.70
     Davidson diagonalization with overlap
     ethr =  6.32E-06,  avg # of iterations =  1.0

     negative rho (up, down):  9.532E-04 0.000E+00

     total cpu time spent up to now is       23.6 secs

     total energy              =    -448.58622430 Ry
     estimated scf accuracy    <       0.00189335 Ry

     iteration # 25     ecut=   124.00 Ry     beta= 0.70
     Davidson diagonalization with overlap
     ethr =  6.32E-06,  avg # of iterations =  2.5

     negative rho (up, down):  9.519E-04 0.000E+00

     total cpu time spent up to now is       24.6 secs

     total energy              =    -448.58664002 Ry
     estimated scf accuracy    <       0.00120785 Ry

     iteration # 26     ecut=   124.00 Ry     beta= 0.70
     Davidson diagonalization with overlap
     ethr =  4.31E-06,  avg # of iterations =  1.0

     negative rho (up, down):  9.350E-04 0.000E+00

     total cpu time spent up to now is       25.5 secs

     total energy              =    -448.58685540 Ry
     estimated scf accuracy    <       0.00115498 Ry

     iteration # 27     ecut=   124.00 Ry     beta= 0.70
     Davidson diagonalization with overlap
     ethr =  4.12E-06,  avg # of iterations =  2.0

     negative rho (up, down):  9.665E-04 0.000E+00

     total cpu time spent up to now is       26.4 secs

     total energy              =    -448.58628946 Ry
     estimated scf accuracy    <       0.00358736 Ry

     iteration # 28     ecut=   124.00 Ry     beta= 0.70
     Davidson diagonalization with overlap
     ethr =  4.12E-06,  avg # of iterations =  2.0

     negative rho (up, down):  9.722E-04 0.000E+00

     total cpu time spent up to now is       27.3 secs

     total energy              =    -448.58652077 Ry
     estimated scf accuracy    <       0.00004729 Ry

     iteration # 29     ecut=   124.00 Ry     beta= 0.70
     Davidson diagonalization with overlap
     ethr =  1.69E-07,  avg # of iterations =  4.7

     negative rho (up, down):  9.640E-04 0.000E+00

     total cpu time spent up to now is       28.4 secs

     total energy              =    -448.58653251 Ry
     estimated scf accuracy    <       0.00024121 Ry

     iteration # 30     ecut=   124.00 Ry     beta= 0.70
     Davidson diagonalization with overlap
     ethr =  1.69E-07,  avg # of iterations =  3.8

     negative rho (up, down):  9.643E-04 0.000E+00

     total cpu time spent up to now is       29.5 secs

     total energy              =    -448.58655217 Ry
     estimated scf accuracy    <       0.00000018 Ry

     iteration # 31     ecut=   124.00 Ry     beta= 0.70
     Davidson diagonalization with overlap
     ethr =  6.52E-10,  avg # of iterations =  5.9

     negative rho (up, down):  9.640E-04 0.000E+00

     total cpu time spent up to now is       30.8 secs

     total energy              =    -448.58655245 Ry
     estimated scf accuracy    <       0.00000124 Ry

     iteration # 32     ecut=   124.00 Ry     beta= 0.70
     Davidson diagonalization with overlap
     ethr =  6.52E-10,  avg # of iterations =  4.0

     negative rho (up, down):  9.638E-04 0.000E+00

     total cpu time spent up to now is       31.8 secs

     total energy              =    -448.58655251 Ry
     estimated scf accuracy    <       0.00000015 Ry

     iteration # 33     ecut=   124.00 Ry     beta= 0.70
     Davidson diagonalization with overlap
     ethr =  5.50E-10,  avg # of iterations =  2.0

     negative rho (up, down):  9.641E-04 0.000E+00

     total cpu time spent up to now is       32.7 secs

     total energy              =    -448.58655246 Ry
     estimated scf accuracy    <       0.00000035 Ry

     iteration # 34     ecut=   124.00 Ry     beta= 0.70
     Davidson diagonalization with overlap
     ethr =  5.50E-10,  avg # of iterations =  2.3

     negative rho (up, down):  9.642E-04 0.000E+00

     total cpu time spent up to now is       33.7 secs

     total energy              =    -448.58655249 Ry
     estimated scf accuracy    <       0.00000002 Ry

     iteration # 35     ecut=   124.00 Ry     beta= 0.70
     Davidson diagonalization with overlap
     ethr =  7.32E-11,  avg # of iterations =  3.8

     negative rho (up, down):  9.641E-04 0.000E+00

     total cpu time spent up to now is       34.7 secs

     total energy              =    -448.58655249 Ry
     estimated scf accuracy    <       0.00000003 Ry

     iteration # 36     ecut=   124.00 Ry     beta= 0.70
     Davidson diagonalization with overlap
     ethr =  7.32E-11,  avg # of iterations =  2.8

     negative rho (up, down):  9.642E-04 0.000E+00

     total cpu time spent up to now is       35.6 secs

     End of self-consistent calculation

          k = 0.0000 0.0000 0.0000 (  3911 PWs)   bands (ev):

   -69.2103 -39.1517 -35.2713 -35.2713 -35.2713 -15.2460 -15.2460 -15.2460
    10.1528  13.8639  13.8639  16.6568  16.6568  16.6568  18.9983  18.9983
    20.9366  20.9366

          k = 0.0000 0.0000 0.0909 (  3947 PWs)   bands (ev):

   -69.2100 -39.1496 -35.2739 -35.2710 -35.2710 -15.2752 -15.2442 -15.2442
    10.3257  13.9470  13.9536  16.6441  16.6441  16.6947  18.8927  19.0380
    20.6858  20.6858

          k = 0.0000 0.0000 0.1818 (  3964 PWs)   bands (ev):

   -69.2093 -39.1439 -35.2806 -35.2699 -35.2699 -15.3532 -15.2395 -15.2395
    10.8272  14.1866  14.1906  16.6148  16.6148  16.8008  18.5875  19.1279
    20.1022  20.1022

          k = 0.0000 0.0000 0.2727 (  3988 PWs)   bands (ev):

   -69.2083 -39.1364 -35.2894 -35.2686 -35.2686 -15.4540 -15.2334 -15.2334
    11.6057  14.4523  14.5738  16.5899  16.5899  16.9516  18.1202  19.1616
    19.4564  19.4564

          k = 0.0000 0.0000 0.3636 (  4008 PWs)   bands (ev):

   -69.2074 -39.1296 -35.2974 -35.2674 -35.2674 -15.5455 -15.2277 -15.2277
    12.5660  14.5652  15.0485  16.5850  16.5850  17.1052  17.5653  18.9275
    18.9275  18.9715

          k = 0.0000 0.0000 0.4545 (  3992 PWs)   bands (ev):

   -69.2069 -39.1255 -35.3021 -35.2666 -35.2666 -15.5993 -15.2243 -15.2243
    13.5347  14.3044  15.4744  16.5939  16.5939  17.0903  17.2053  18.6282
    18.6282  18.6588

          k = 0.0000 0.0909 0.0909 (  3966 PWs)   bands (ev):

   -69.2097 -39.1473 -35.2748 -35.2724 -35.2706 -15.2763 -15.2701 -15.2424
    10.4951  14.0265  14.0436  16.5617  16.6235  16.7909  18.8775  19.0087
    20.4104  20.4353

          k = 0.0000 0.0909 0.1818 (  3978 PWs)   bands (ev):

   -69.2090 -39.1413 -35.2811 -35.2724 -35.2696 -15.3507 -15.2674 -15.2375
    10.9856  14.2440  14.2906  16.4813  16.5732  16.9084  18.6426  19.0872
    19.8667  19.9001

          k = 0.0000 0.0909 0.2727 (  3995 PWs)   bands (ev):

   -69.2080 -39.1334 -35.2900 -35.2716 -35.2682 -15.4505 -15.2605 -15.2310
    11.7434  14.5128  14.6445  16.4377  16.5167  16.9935  18.2447  19.0577
    19.3653  19.4002

          k = 0.0000 0.0909 0.3636 (  3991 PWs)   bands (ev):

   -69.2071 -39.1261 -35.2982 -35.2709 -35.2670 -15.5410 -15.2540 -15.2251
    12.6707  14.6170  15.0808  16.4435  16.4656  16.9997  17.7899  18.6460
    19.0665  19.2133

          k = 0.0000 0.0909 0.4545 (  3999 PWs)   bands (ev):

   -69.2066 -39.1218 -35.3030 -35.2704 -35.2663 -15.5943 -15.2502 -15.2216
    13.5943  14.3519  15.4692  16.3968  16.4805  16.9451  17.4633  18.3527
    18.9324  19.0197

          k = 0.0000 0.1818 0.1818 (  3972 PWs)   bands (ev):

   -69.2083 -39.1343 -35.2840 -35.2772 -35.2686 -15.3518 -15.3342 -15.2320
    11.4401  14.3900  14.5687  16.3070  16.4778  16.9857  18.6949  19.0459
    19.3497  19.5759

          k = 0.0000 0.1818 0.2727 (  4003 PWs)   bands (ev):

   -69.2073 -39.1252 -35.2920 -35.2794 -35.2673 -15.4412 -15.3324 -15.2248
    12.1275  14.5565  14.9462  16.1858  16.3868  16.9101  18.5209  18.8014
    19.2048  19.3971

          k = 0.0000 0.1818 0.3636 (  3997 PWs)   bands (ev):

   -69.2064 -39.1168 -35.3004 -35.2802 -35.2661 -15.5290 -15.3241 -15.2182
    12.9354  14.5943  15.3322  16.1499  16.3572  16.7002  18.2182  18.4617
    19.3303  19.4171

          k = 0.0000 0.1818 0.4545 (  3990 PWs)   bands (ev):

   -69.2059 -39.1118 -35.3055 -35.2806 -35.2654 -15.5808 -15.3190 -15.2143
    13.6841  14.3630  15.6125  16.2009  16.3901  16.4819  18.0481  18.2166
    19.3519  19.5140

          k = 0.0000 0.2727 0.2727 (  4000 PWs)   bands (ev):

   -69.2063 -39.1144 -35.2962 -35.2880 -35.2661 -15.4376 -15.4171 -15.2167
    12.6688  14.5348  15.3963  15.9775  16.3399  16.6425  18.5789  18.7502
    19.1053  19.5704

          k = 0.0000 0.2727 0.3636 (  3993 PWs)   bands (ev):

   -69.2054 -39.1045 -35.3035 -35.2923 -35.2649 -15.5134 -15.4148 -15.2091
    13.2266  14.4166  15.8407  15.8678  16.3180  16.4951  18.3958  18.7292
    19.2749  19.8465

          k = 0.0000 0.2727 0.4545 (  3996 PWs)   bands (ev):

   -69.2049 -39.0986 -35.3088 -35.2939 -35.2643 -15.5632 -15.4082 -15.2047
    13.6460  14.2282  15.8808  16.0551  16.0845  16.8466  18.1510  18.6845
    19.4869  20.0942

          k = 0.0000 0.3636 0.3636 (  4002 PWs)   bands (ev):

   -69.2046 -39.0932 -35.3073 -35.3025 -35.2639 -15.5040 -15.4922 -15.2008
    13.4198  14.2078  15.6811  15.9708  16.4456  16.8939  18.5222  19.0881
    19.1103  20.2512

          k = 0.0000 0.3636 0.4545 (  3999 PWs)   bands (ev):

   -69.2041 -39.0865 -35.3119 -35.3062 -35.2632 -15.5469 -15.4893 -15.1958
    13.5039  14.0682  15.6294  15.7309  16.8140  17.5391  18.2827  19.1483
    19.3230  20.5545

          k = 0.0000 0.4545 0.4545 (  3998 PWs)   bands (ev):

   -69.2035 -39.0793 -35.3139 -35.3133 -35.2626 -15.5379 -15.5363 -15.1906
    13.3946  13.9723  15.5085  15.5425  17.5106  17.9878  18.6670  18.8520
    19.4119  20.8262

          k = 0.0909 0.0909 0.0909 (  3959 PWs)   bands (ev):

   -69.2095 -39.1450 -35.2744 -35.2744 -35.2711 -15.2768 -15.2683 -15.2683
    10.6615  14.1185  14.1185  16.5391  16.5391  16.8681  18.9295  18.9295
    19.9929  20.6652

          k = 0.0909 0.0909 0.1818 (  3966 PWs)   bands (ev):

   -69.2087 -39.1386 -35.2813 -35.2733 -35.2710 -15.3482 -15.2670 -15.2635
    11.1426  14.3361  14.3554  16.4287  16.4796  16.9503  18.7012  19.0493
    19.5188  20.0789

          k = 0.0909 0.0909 0.2727 (  3992 PWs)   bands (ev):

   -69.2077 -39.1303 -35.2905 -35.2720 -35.2707 -15.4470 -15.2590 -15.2572
    11.8826  14.6168  14.6736  16.3700  16.3987  16.9454  18.3564  19.0006
    19.3237  19.4428

          k = 0.0909 0.0909 0.3636 (  3994 PWs)   bands (ev):

   -69.2069 -39.1227 -35.2989 -35.2707 -35.2704 -15.5367 -15.2515 -15.2514
    12.7810  14.7008  15.0813  16.2989  16.4005  16.8595  17.9712  18.7163
    18.9369  19.4203

          k = 0.0909 0.0909 0.4545 (  4007 PWs)   bands (ev):

   -69.2063 -39.1181 -35.3038 -35.2702 -35.2699 -15.5895 -15.2480 -15.2470
    13.6656  14.4197  15.4383  16.1745  16.5156  16.7699  17.6949  18.4315
    18.6598  19.5237

          k = 0.0909 0.1818 0.1818 (  3984 PWs)   bands (ev):

   -69.2080 -39.1314 -35.2836 -35.2780 -35.2712 -15.3485 -15.3323 -15.2593
    11.5926  14.4938  14.6188  16.2700  16.3702  16.9131  18.7644  19.0172
    19.2359  19.7949

          k = 0.0909 0.1818 0.2727 (  3994 PWs)   bands (ev):

   -69.2070 -39.1221 -35.2920 -35.2795 -35.2705 -15.4379 -15.3300 -15.2517
    12.2705  14.6757  14.9647  16.1421  16.2715  16.7315  18.6110  18.9229
    19.2408  19.4560

          k = 0.0909 0.1818 0.3636 (  4001 PWs)   bands (ev):

   -69.2061 -39.1134 -35.3007 -35.2800 -35.2697 -15.5252 -15.3216 -15.2446
    13.0616  14.7215  15.2859  16.0686  16.2634  16.5479  18.3725  18.5771
    19.1013  19.7200

          k = 0.0909 0.1818 0.4545 (  3993 PWs)   bands (ev):

   -69.2056 -39.1083 -35.3060 -35.2802 -35.2692 -15.5767 -15.3165 -15.2403
    13.7875  14.4740  15.5175  16.0018  16.3647  16.4909  18.1992  18.2872
    18.8992  20.1084

          k = 0.0909 0.2727 0.2727 (  3989 PWs)   bands (ev):

   -69.2061 -39.1113 -35.2957 -35.2883 -35.2695 -15.4338 -15.4152 -15.2433
    12.8158  14.6587  15.4058  15.9390  16.2101  16.4306  18.6963  18.9064
    19.0874  19.7048

          k = 0.0909 0.2727 0.3636 (  3985 PWs)   bands (ev):

   -69.2052 -39.1013 -35.3033 -35.2922 -35.2686 -15.5102 -15.4124 -15.2356
    13.3704  14.5419  15.7742  15.8302  16.2030  16.3600  18.4781  18.8194
    19.1583  20.1173

          k = 0.0909 0.2727 0.4545 (  4006 PWs)   bands (ev):

   -69.2047 -39.0954 -35.3089 -35.2935 -35.2680 -15.5599 -15.4059 -15.2309
    13.7756  14.3545  15.7972  15.8477  16.1550  16.7541  18.1884  18.7888
    19.0873  20.6003

          k = 0.0909 0.3636 0.3636 (  3992 PWs)   bands (ev):

   -69.2043 -39.0901 -35.3068 -35.3024 -35.2675 -15.5010 -15.4902 -15.2272
    13.5656  14.3325  15.6507  15.8817  16.4032  16.7209  18.4860  18.9868
    19.1887  20.5637

          k = 0.0909 0.3636 0.4545 (  4002 PWs)   bands (ev):

   -69.2038 -39.0835 -35.3116 -35.3057 -35.2669 -15.5444 -15.4872 -15.2223
    13.6402  14.1966  15.5970  15.6797  16.7391  17.3611  18.2404  18.9495
    19.2816  20.7958

          k = 0.0909 0.4545 0.4545 (  3993 PWs)   bands (ev):

   -69.2033 -39.0764 -35.3134 -35.3128 -35.2662 -15.5359 -15.5344 -15.2171
    13.5314  14.1009  15.4861  15.5157  17.4523  17.8446  18.4160  18.5135
    19.4900  21.0194

          k = 0.1818 0.1818 0.1818 (  3989 PWs)   bands (ev):

   -69.2072 -39.1238 -35.2825 -35.2825 -35.2757 -15.3446 -15.3274 -15.3274
    12.0266  14.7610  14.7610  16.1713  16.1713  16.6504  18.9329  18.9329
    19.2930  20.0375

          k = 0.1818 0.1818 0.2727 (  3992 PWs)   bands (ev):

   -69.2063 -39.1137 -35.2922 -35.2810 -35.2777 -15.4290 -15.3257 -15.3208
    12.6697  14.9702  15.0333  16.0341  16.0388  16.3368  18.8050  19.0078
    19.4274  19.5989

          k = 0.1818 0.1818 0.3636 (  3994 PWs)   bands (ev):

   -69.2054 -39.1044 -35.3017 -35.2796 -35.2790 -15.5149 -15.3149 -15.3148
    13.3929  15.0074  15.2036  15.8991  16.0682  16.2650  18.6704  18.7433
    18.9524  20.1601

          k = 0.1818 0.1818 0.4545 (  3986 PWs)   bands (ev):

   -69.2049 -39.0989 -35.3073 -35.2797 -35.2788 -15.5656 -15.3112 -15.3084
    14.0172  14.6821  15.3921  15.7788  16.1845  16.4450  18.3322  18.5953
    18.6807  20.5299

          k = 0.1818 0.2727 0.2727 (  3994 PWs)   bands (ev):

   -69.2053 -39.1027 -35.2945 -35.2893 -35.2787 -15.4236 -15.4100 -15.3143
    13.2274  14.9964  15.4273  15.8397  15.9189  15.9976  18.8252  19.0096
    19.3285  20.0778

          k = 0.1818 0.2727 0.3636 (  3988 PWs)   bands (ev):

   -69.2045 -39.0926 -35.3031 -35.2918 -35.2783 -15.5016 -15.4059 -15.3060
    13.7701  14.8707  15.5750  15.7253  15.9737  16.0870  18.5906  18.8383
    19.2207  20.3803

          k = 0.1818 0.2727 0.4545 (  3991 PWs)   bands (ev):

   -69.2039 -39.0866 -35.3091 -35.2925 -35.2779 -15.5511 -15.3998 -15.3010
    14.1253  14.6660  15.5488  15.6706  16.0602  16.5356  18.2319  18.6757
    19.1298  20.6015

          k = 0.1818 0.3636 0.3636 (  3990 PWs)   bands (ev):

   -69.2036 -39.0817 -35.3055 -35.3023 -35.2773 -15.4928 -15.4851 -15.2978
    13.9820  14.6576  15.5747  15.6896  16.2719  16.2956  18.4622  18.6970
    19.4851  20.5436

          k = 0.1818 0.3636 0.4545 (  3993 PWs)   bands (ev):

   -69.2031 -39.0753 -35.3108 -35.3045 -35.2767 -15.5378 -15.4816 -15.2929
    14.0272  14.5323  15.5200  15.5675  16.4915  16.9250  18.1794  18.5402
    19.5617  20.7854

          k = 0.1818 0.4545 0.4545 (  4002 PWs)   bands (ev):

   -69.2026 -39.0685 -35.3120 -35.3116 -35.2760 -15.5303 -15.5293 -15.2880
    13.9234  14.4435  15.4329  15.4545  17.1746  17.2812  18.0690  18.2503
    19.7506  21.0766

          k = 0.2727 0.2727 0.2727 (  3998 PWs)   bands (ev):

   -69.2044 -39.0915 -35.2928 -35.2928 -35.2886 -15.4132 -15.4033 -15.4033
    13.7990  15.4441  15.4441  15.5182  15.7193  15.7193  18.8337  18.8337
    19.7984  19.7984

          k = 0.2727 0.2727 0.3636 (  3992 PWs)   bands (ev):

   -69.2035 -39.0812 -35.3030 -35.2913 -35.2908 -15.4904 -15.3973 -15.3971
    14.2965  15.1356  15.4426  15.6207  15.7209  15.9354  18.5785  18.6239
    19.6455  20.2948

          k = 0.2727 0.2727 0.4545 (  3990 PWs)   bands (ev):

   -69.2030 -39.0751 -35.3095 -35.2915 -35.2905 -15.5396 -15.3934 -15.3900
    14.5098  14.9115  15.4302  15.5701  15.9004  16.3710  18.1751  18.4970
    19.5915  20.6353

          k = 0.2727 0.3636 0.3636 (  3988 PWs)   bands (ev):

   -69.2027 -39.0707 -35.3037 -35.3021 -35.2902 -15.4821 -15.4783 -15.3891
    14.5958  15.0027  15.4918  15.5872  15.8170  16.0595  18.4143  18.4173
    19.9497  20.4947

          k = 0.2727 0.3636 0.4545 (  3992 PWs)   bands (ev):

   -69.2021 -39.0645 -35.3099 -35.3030 -35.2896 -15.5291 -15.4742 -15.3843
    14.5794  14.9171  15.4521  15.5076  16.1032  16.4659  18.0772  18.3313
    20.0121  20.8207

          k = 0.2727 0.4545 0.4545 (  4000 PWs)   bands (ev):

   -69.2016 -39.0581 -35.3102 -35.3100 -35.2888 -15.5231 -15.5225 -15.3799
    14.5067  14.8769  15.3854  15.4135  16.6254  16.6526  17.9060  18.1706
    20.1898  21.1137

          k = 0.3636 0.3636 0.3636 (  3999 PWs)   bands (ev):

   -69.2018 -39.0606 -35.3021 -35.3021 -35.3018 -15.4723 -15.4721 -15.4721
    14.9948  15.3300  15.4470  15.4470  15.8146  15.8146  18.2411  18.2411
    20.5003  20.5003

          k = 0.3636 0.3636 0.4545 (  4008 PWs)   bands (ev):

   -69.2013 -39.0545 -35.3090 -35.3018 -35.3012 -15.5211 -15.4684 -15.4664
    14.9932  15.1653  15.4767  15.6074  15.7984  16.1605  17.9824  18.1639
    20.5130  20.9127

          k = 0.3636 0.4545 0.4545 (  3994 PWs)   bands (ev):

   -69.2008 -39.0486 -35.3085 -35.3085 -35.3006 -15.5164 -15.5163 -15.4633
    15.1009  15.2496  15.3888  15.4963  16.0924  16.1437  17.8651  18.0301
    20.7354  21.1431

          k = 0.4545 0.4545 0.4545 (  3972 PWs)   bands (ev):

   -69.2003 -39.0430 -35.3076 -35.3075 -35.3075 -15.5126 -15.5126 -15.5122
    15.3317  15.4752  15.4752  15.7776  15.7776  15.8004  17.8552  17.8552
    21.1598  21.1598

     the Fermi energy is    17.5936 ev

!    total energy              =    -448.58655249 Ry
     estimated scf accuracy    <          4.6E-09 Ry
     smearing contrib. (-TS)   =       0.00005040 Ry
     internal energy E=F+TS    =    -448.58660289 Ry

     The total energy is F=E-TS. E is the sum of the following terms:
     one-electron contribution =    -151.34258880 Ry
     hartree contribution      =      91.61754585 Ry
     xc contribution           =     -52.88701341 Ry
     ewald contribution        =    -259.82070277 Ry
     one-center paw contrib.   =     -76.15384375 Ry

     convergence has been achieved in  36 iterations

     negative rho (up, down):  9.642E-04 0.000E+00

     Forces acting on atoms (cartesian axes, Ry/au):

     atom    1 type  1   force =     0.00000000    0.00000000    0.00000000
     atom    2 type  2   force =     0.00000000    0.00000000    0.00000000

     Total force =     0.000000     Total SCF correction =     0.000000


     Computing stress (Cartesian axis) and pressure


     negative rho (up, down):  9.642E-04 0.000E+00
          total   stress  (Ry/bohr**3)                   (kbar)     P=       31.33
   0.00021296   0.00000000   0.00000000           31.33        0.00        0.00
   0.00000000   0.00021296   0.00000000            0.00       31.33        0.00
   0.00000000   0.00000000   0.00021296            0.00        0.00       31.33


     Writing all to output data dir ./TiFe.save/ :
     XML data file, charge density, pseudopotentials, collected wavefunctions

     init_run     :      1.06s CPU      1.23s WALL (       1 calls)
     electrons    :     32.31s CPU     34.10s WALL (       1 calls)
     forces       :      0.23s CPU      0.25s WALL (       1 calls)
     stress       :      1.35s CPU      1.40s WALL (       1 calls)

     Called by init_run:
     wfcinit      :      0.30s CPU      0.39s WALL (       1 calls)
     potinit      :      0.35s CPU      0.41s WALL (       1 calls)
     hinit0       :      0.25s CPU      0.26s WALL (       1 calls)

     Called by electrons:
     c_bands      :     18.31s CPU     18.76s WALL (      36 calls)
     sum_band     :      7.46s CPU      8.12s WALL (      36 calls)
     v_of_rho     :      0.72s CPU      0.79s WALL (      37 calls)
     newd         :      4.00s CPU      4.57s WALL (      37 calls)
     PAW_pot      :      1.83s CPU      1.90s WALL (      37 calls)
     mix_rho      :      0.09s CPU      0.10s WALL (      36 calls)

     Called by c_bands:
     init_us_2    :      0.57s CPU      0.59s WALL (    4200 calls)
     cegterg      :     17.29s CPU     17.71s WALL (    2016 calls)

     Called by *egterg:
     cdiaghg      :      1.89s CPU      2.01s WALL (    6534 calls)
     h_psi        :     13.44s CPU     13.78s WALL (    6590 calls)
     s_psi        :      0.40s CPU      0.41s WALL (    6590 calls)
     g_psi        :      0.08s CPU      0.08s WALL (    4518 calls)

     Called by h_psi:
     h_psi:calbec :      0.52s CPU      0.54s WALL (    6590 calls)
     vloc_psi     :     12.45s CPU     12.77s WALL (    6590 calls)
     add_vuspsi   :      0.40s CPU      0.41s WALL (    6590 calls)

     General routines
     calbec       :      0.79s CPU      0.82s WALL (    9558 calls)
     fft          :      0.51s CPU      0.59s WALL (     504 calls)
     ffts         :      0.28s CPU      0.28s WALL (      73 calls)
     fftw         :     11.18s CPU     11.46s WALL (  207352 calls)
     interpolate  :      0.31s CPU      0.31s WALL (      37 calls)

     Parallel routines

     PWSCF        :     35.21s CPU     37.51s WALL


   This run was terminated on:   2:21:19  25Oct2025            

=------------------------------------------------------------------------------=
   JOB DONE.
=------------------------------------------------------------------------------=
