
     Program PWSCF v.7.4 starts on 25Oct2025 at  0:51:47 

     This program is part of the open-source Quantum ESPRESSO suite
     for quantum simulation of materials; please cite
         "P. Giannozzi et al., J. Phys.:Condens. Matter 21 395502 (2009);
         "P. Giannozzi et al., J. Phys.:Condens. Matter 29 465901 (2017);
         "P. Giannozzi et al., J. Chem. Phys. 152 154105 (2020);
          URL http://www.quantum-espresso.org", 
     in publications or presentations arising from this work. More details at
     http://www.quantum-espresso.org/quote

     Parallel version (MPI & OpenMP), running on       8 processor cores
     Number of MPI processes:                 8
     Threads/MPI process:                     1

     MPI processes distributed on     1 nodes
     211045 MiB available memory on the printing compute node when the environment starts

     Reading input from TiFe_24.in

     Current dimensions of program PWSCF are:
     Max number of different atomic species (ntypx) = 10
     Max number of k-points (npk) =  40000
     Max angular momentum in pseudopotentials (lmaxx) =  4
     file Fe.pbe-spn-kjpaw_psl.0.2.1.UPF: wavefunction(s)  3D renormalized

     IMPORTANT: XC functional enforced from input :
     Exchange-correlation= PBE
                           (   1   4   3   4   0   0   0)
     Any further DFT definition will be discarded
     Please, verify this is what you really want

     Message from routine setup:
     using ibrav=0 with symmetry is DISCOURAGED, use correct ibrav instead

     R & G space division:  proc/nbgrp/npool/nimage =       8
     Subspace diagonalization in iterative solution of the eigenvalue problem:
     a serial algorithm will be used


     Parallelization info
     --------------------
     sticks:   dense  smooth     PW     G-vecs:    dense   smooth      PW
     Min         579     164     47                29521     4504     695
     Max         581     165     48                29522     4508     699
     Sum        4637    1313    377               236169    36041    5575

     Using Slab Decomposition



     bravais-lattice index     =            0
     lattice parameter (alat)  =       5.7801  a.u.
     unit-cell volume          =     193.1073 (a.u.)^3
     number of atoms/cell      =            2
     number of atomic types    =            2
     number of electrons       =        28.00
     number of Kohn-Sham states=           18
     kinetic-energy cutoff     =     124.0000  Ry
     charge density cutoff     =    1736.0000  Ry
     scf convergence threshold =      1.0E-08
     mixing beta               =       0.7000
     number of iterations used =            8  plain     mixing
     Exchange-correlation= PBE
                           (   1   4   3   4   0   0   0)

     celldm(1)=   5.780068  celldm(2)=   0.000000  celldm(3)=   0.000000
     celldm(4)=   0.000000  celldm(5)=   0.000000  celldm(6)=   0.000000

     crystal axes: (cart. coord. in units of alat)
               a(1) = (   1.000000   0.000000   0.000000 )  
               a(2) = (   0.000000   1.000000   0.000000 )  
               a(3) = (   0.000000   0.000000   1.000000 )  

     reciprocal axes: (cart. coord. in units 2 pi/alat)
               b(1) = (  1.000000  0.000000  0.000000 )  
               b(2) = (  0.000000  1.000000  0.000000 )  
               b(3) = (  0.000000  0.000000  1.000000 )  


     PseudoPot. # 1 for Fe read from file:
     ../pseudos/Fe.pbe-spn-kjpaw_psl.0.2.1.UPF
     MD5 check sum: e86618425769142926afa95317d90200
     Pseudo is Projector augmented-wave + core cor, Zval = 16.0
     Generated using "atomic" code by A. Dal Corso  v.5.0.99 svn rev. 10869
     Shape of augmentation charge: PSQ
     Using radial grid of 1191 points,  6 beta functions with: 
                l(1) =   0
                l(2) =   0
                l(3) =   1
                l(4) =   1
                l(5) =   2
                l(6) =   2
     Q(r) pseudized with 0 coefficients 


     PseudoPot. # 2 for Ti read from file:
     ../pseudos/ti_pbe_v1.4.uspp.F.UPF
     MD5 check sum: 88a00a6731bd790ddea75d31a80cb452
     Pseudo is Ultrasoft + core correction, Zval = 12.0
     Generated by new atomic code, or converted to UPF format
     Using radial grid of  851 points,  6 beta functions with: 
                l(1) =   0
                l(2) =   0
                l(3) =   1
                l(4) =   1
                l(5) =   2
                l(6) =   2
     Q(r) pseudized with  6 coefficients,  rinner =    1.000   1.000   1.000
                                                       1.000   1.000

     atomic species   valence    mass     pseudopotential
     Fe               16.00    55.84500     Fe( 1.00)
     Ti               12.00    47.86700     Ti( 1.00)

     48 Sym. Ops., with inversion, found



   Cartesian axes

     site n.     atom                  positions (alat units)
         1        Fe     tau(   1) = (   0.5000000   0.5000000   0.5000000  )
         2        Ti     tau(   2) = (   0.0000000   0.0000000   0.0000000  )

     number of k points=    56  Marzari-Vanderbilt smearing, width (Ry)=  0.0050
                       cart. coord. in units 2pi/alat
        k(    1) = (   0.0000000   0.0000000   0.0000000), wk =   0.0015026
        k(    2) = (   0.0000000   0.0000000   0.0909091), wk =   0.0090158
        k(    3) = (   0.0000000   0.0000000   0.1818182), wk =   0.0090158
        k(    4) = (   0.0000000   0.0000000   0.2727273), wk =   0.0090158
        k(    5) = (   0.0000000   0.0000000   0.3636364), wk =   0.0090158
        k(    6) = (   0.0000000   0.0000000   0.4545455), wk =   0.0090158
        k(    7) = (   0.0000000   0.0909091   0.0909091), wk =   0.0180316
        k(    8) = (   0.0000000   0.0909091   0.1818182), wk =   0.0360631
        k(    9) = (   0.0000000   0.0909091   0.2727273), wk =   0.0360631
        k(   10) = (   0.0000000   0.0909091   0.3636364), wk =   0.0360631
        k(   11) = (   0.0000000   0.0909091   0.4545455), wk =   0.0360631
        k(   12) = (   0.0000000   0.1818182   0.1818182), wk =   0.0180316
        k(   13) = (   0.0000000   0.1818182   0.2727273), wk =   0.0360631
        k(   14) = (   0.0000000   0.1818182   0.3636364), wk =   0.0360631
        k(   15) = (   0.0000000   0.1818182   0.4545455), wk =   0.0360631
        k(   16) = (   0.0000000   0.2727273   0.2727273), wk =   0.0180316
        k(   17) = (   0.0000000   0.2727273   0.3636364), wk =   0.0360631
        k(   18) = (   0.0000000   0.2727273   0.4545455), wk =   0.0360631
        k(   19) = (   0.0000000   0.3636364   0.3636364), wk =   0.0180316
        k(   20) = (   0.0000000   0.3636364   0.4545455), wk =   0.0360631
        k(   21) = (   0.0000000   0.4545455   0.4545455), wk =   0.0180316
        k(   22) = (   0.0909091   0.0909091   0.0909091), wk =   0.0120210
        k(   23) = (   0.0909091   0.0909091   0.1818182), wk =   0.0360631
        k(   24) = (   0.0909091   0.0909091   0.2727273), wk =   0.0360631
        k(   25) = (   0.0909091   0.0909091   0.3636364), wk =   0.0360631
        k(   26) = (   0.0909091   0.0909091   0.4545455), wk =   0.0360631
        k(   27) = (   0.0909091   0.1818182   0.1818182), wk =   0.0360631
        k(   28) = (   0.0909091   0.1818182   0.2727273), wk =   0.0721262
        k(   29) = (   0.0909091   0.1818182   0.3636364), wk =   0.0721262
        k(   30) = (   0.0909091   0.1818182   0.4545455), wk =   0.0721262
        k(   31) = (   0.0909091   0.2727273   0.2727273), wk =   0.0360631
        k(   32) = (   0.0909091   0.2727273   0.3636364), wk =   0.0721262
        k(   33) = (   0.0909091   0.2727273   0.4545455), wk =   0.0721262
        k(   34) = (   0.0909091   0.3636364   0.3636364), wk =   0.0360631
        k(   35) = (   0.0909091   0.3636364   0.4545455), wk =   0.0721262
        k(   36) = (   0.0909091   0.4545455   0.4545455), wk =   0.0360631
        k(   37) = (   0.1818182   0.1818182   0.1818182), wk =   0.0120210
        k(   38) = (   0.1818182   0.1818182   0.2727273), wk =   0.0360631
        k(   39) = (   0.1818182   0.1818182   0.3636364), wk =   0.0360631
        k(   40) = (   0.1818182   0.1818182   0.4545455), wk =   0.0360631
        k(   41) = (   0.1818182   0.2727273   0.2727273), wk =   0.0360631
        k(   42) = (   0.1818182   0.2727273   0.3636364), wk =   0.0721262
        k(   43) = (   0.1818182   0.2727273   0.4545455), wk =   0.0721262
        k(   44) = (   0.1818182   0.3636364   0.3636364), wk =   0.0360631
        k(   45) = (   0.1818182   0.3636364   0.4545455), wk =   0.0721262
        k(   46) = (   0.1818182   0.4545455   0.4545455), wk =   0.0360631
        k(   47) = (   0.2727273   0.2727273   0.2727273), wk =   0.0120210
        k(   48) = (   0.2727273   0.2727273   0.3636364), wk =   0.0360631
        k(   49) = (   0.2727273   0.2727273   0.4545455), wk =   0.0360631
        k(   50) = (   0.2727273   0.3636364   0.3636364), wk =   0.0360631
        k(   51) = (   0.2727273   0.3636364   0.4545455), wk =   0.0721262
        k(   52) = (   0.2727273   0.4545455   0.4545455), wk =   0.0360631
        k(   53) = (   0.3636364   0.3636364   0.3636364), wk =   0.0120210
        k(   54) = (   0.3636364   0.3636364   0.4545455), wk =   0.0360631
        k(   55) = (   0.3636364   0.4545455   0.4545455), wk =   0.0360631
        k(   56) = (   0.4545455   0.4545455   0.4545455), wk =   0.0120210

     Dense  grid:   236169 G-vectors     FFT dimensions: (  80,  80,  80)

     Smooth grid:    36041 G-vectors     FFT dimensions: (  45,  45,  45)

     Estimated max dynamical RAM per process >     123.71 MB

     Estimated total dynamical RAM >     989.70 MB

     Check: negative core charge=   -0.000001

     Initial potential from superposition of free atoms

     starting charge      26.9995, renormalised to      28.0000

     negative rho (up, down):  1.345E-03 0.000E+00
     Starting wfcs are   23 randomized atomic wfcs
     Checking if some PAW data can be deallocated... 

     total cpu time spent up to now is        1.7 secs

     per-process dynamical memory:   137.1 Mb

     Self-consistent Calculation

     iteration #  1     ecut=   124.00 Ry     beta= 0.70
     Davidson diagonalization with overlap
     ethr =  1.00E-02,  avg # of iterations =  2.2

     negative rho (up, down):  9.952E-05 0.000E+00

     total cpu time spent up to now is        3.2 secs

     total energy              =    -432.57159688 Ry
     estimated scf accuracy    <      20.25373177 Ry

     iteration #  2     ecut=   124.00 Ry     beta= 0.70
     Davidson diagonalization with overlap
     ethr =  1.00E-02,  avg # of iterations =  6.1

     negative rho (up, down):  1.034E-05 0.000E+00

     total cpu time spent up to now is        5.7 secs

     total energy              =    -447.52844235 Ry
     estimated scf accuracy    <      78.81649686 Ry

     iteration #  3     ecut=   124.00 Ry     beta= 0.70
     Davidson diagonalization with overlap
     ethr =  1.00E-02,  avg # of iterations =  3.2

     negative rho (up, down):  1.266E-04 0.000E+00

     total cpu time spent up to now is        7.4 secs

     total energy              =    -449.21603769 Ry
     estimated scf accuracy    <      18.82172431 Ry

     iteration #  4     ecut=   124.00 Ry     beta= 0.70
     Davidson diagonalization with overlap
     ethr =  1.00E-02,  avg # of iterations =  2.1

     negative rho (up, down):  2.482E-04 0.000E+00

     total cpu time spent up to now is        8.8 secs

     total energy              =    -449.14539932 Ry
     estimated scf accuracy    <       7.64481599 Ry

     iteration #  5     ecut=   124.00 Ry     beta= 0.70
     Davidson diagonalization with overlap
     ethr =  1.00E-02,  avg # of iterations =  1.1

     negative rho (up, down):  4.545E-04 0.000E+00

     total cpu time spent up to now is       10.1 secs

     total energy              =    -448.88994785 Ry
     estimated scf accuracy    <       5.09671371 Ry

     iteration #  6     ecut=   124.00 Ry     beta= 0.70
     Davidson diagonalization with overlap
     ethr =  1.00E-02,  avg # of iterations =  1.2

     negative rho (up, down):  1.357E-03 0.000E+00

     total cpu time spent up to now is       11.3 secs

     total energy              =    -447.56863397 Ry
     estimated scf accuracy    <       4.07097211 Ry

     iteration #  7     ecut=   124.00 Ry     beta= 0.70
     Davidson diagonalization with overlap
     ethr =  1.00E-02,  avg # of iterations =  4.6

     negative rho (up, down):  1.121E-03 0.000E+00

     total cpu time spent up to now is       13.0 secs

     total energy              =    -449.01528867 Ry
     estimated scf accuracy    <      20.94196091 Ry

     iteration #  8     ecut=   124.00 Ry     beta= 0.70
     Davidson diagonalization with overlap
     ethr =  1.00E-02,  avg # of iterations =  1.0

     negative rho (up, down):  5.966E-04 0.000E+00

     total cpu time spent up to now is       14.2 secs

     total energy              =    -447.31254821 Ry
     estimated scf accuracy    <      13.09048960 Ry

     iteration #  9     ecut=   124.00 Ry     beta= 0.70
     Davidson diagonalization with overlap
     ethr =  1.00E-02,  avg # of iterations =  2.8

     negative rho (up, down):  6.860E-04 0.000E+00

     total cpu time spent up to now is       15.6 secs

     total energy              =    -448.60376150 Ry
     estimated scf accuracy    <       2.02046439 Ry

     iteration # 10     ecut=   124.00 Ry     beta= 0.70
     Davidson diagonalization with overlap
     ethr =  7.22E-03,  avg # of iterations =  1.0

     negative rho (up, down):  7.537E-04 0.000E+00

     total cpu time spent up to now is       16.9 secs

     total energy              =    -448.56781521 Ry
     estimated scf accuracy    <       0.81500946 Ry

     iteration # 11     ecut=   124.00 Ry     beta= 0.70
     Davidson diagonalization with overlap
     ethr =  2.91E-03,  avg # of iterations =  1.0

     negative rho (up, down):  8.727E-04 0.000E+00

     total cpu time spent up to now is       18.1 secs

     total energy              =    -448.54268319 Ry
     estimated scf accuracy    <       0.15386742 Ry

     iteration # 12     ecut=   124.00 Ry     beta= 0.70
     Davidson diagonalization with overlap
     ethr =  5.50E-04,  avg # of iterations =  4.2

     negative rho (up, down):  7.448E-04 0.000E+00

     total cpu time spent up to now is       19.6 secs

     total energy              =    -448.51760663 Ry
     estimated scf accuracy    <       0.77730689 Ry

     iteration # 13     ecut=   124.00 Ry     beta= 0.70
     Davidson diagonalization with overlap
     ethr =  5.50E-04,  avg # of iterations =  3.6

     negative rho (up, down):  7.373E-04 0.000E+00

     total cpu time spent up to now is       21.0 secs

     total energy              =    -448.59198104 Ry
     estimated scf accuracy    <       0.11989734 Ry

     iteration # 14     ecut=   124.00 Ry     beta= 0.70
     Davidson diagonalization with overlap
     ethr =  4.28E-04,  avg # of iterations =  1.1

     negative rho (up, down):  7.374E-04 0.000E+00

     total cpu time spent up to now is       22.2 secs

     total energy              =    -448.59124579 Ry
     estimated scf accuracy    <       0.15859400 Ry

     iteration # 15     ecut=   124.00 Ry     beta= 0.70
     Davidson diagonalization with overlap
     ethr =  4.28E-04,  avg # of iterations =  1.0

     negative rho (up, down):  7.493E-04 0.000E+00

     total cpu time spent up to now is       23.5 secs

     total energy              =    -448.58666843 Ry
     estimated scf accuracy    <       0.14442293 Ry

     iteration # 16     ecut=   124.00 Ry     beta= 0.70
     Davidson diagonalization with overlap
     ethr =  4.28E-04,  avg # of iterations =  1.0

     negative rho (up, down):  7.520E-04 0.000E+00

     total cpu time spent up to now is       24.7 secs

     total energy              =    -448.58657632 Ry
     estimated scf accuracy    <       0.09823193 Ry

     iteration # 17     ecut=   124.00 Ry     beta= 0.70
     Davidson diagonalization with overlap
     ethr =  3.51E-04,  avg # of iterations =  1.0

     negative rho (up, down):  7.572E-04 0.000E+00

     total cpu time spent up to now is       26.0 secs

     total energy              =    -448.59118592 Ry
     estimated scf accuracy    <       0.09514678 Ry

     iteration # 18     ecut=   124.00 Ry     beta= 0.70
     Davidson diagonalization with overlap
     ethr =  3.40E-04,  avg # of iterations =  1.1

     negative rho (up, down):  8.906E-04 0.000E+00

     total cpu time spent up to now is       27.3 secs

     total energy              =    -448.58460789 Ry
     estimated scf accuracy    <       0.16296886 Ry

     iteration # 19     ecut=   124.00 Ry     beta= 0.70
     Davidson diagonalization with overlap
     ethr =  3.40E-04,  avg # of iterations =  1.0

     negative rho (up, down):  1.142E-03 0.000E+00

     total cpu time spent up to now is       28.5 secs

     total energy              =    -448.56068412 Ry
     estimated scf accuracy    <       0.17443476 Ry

     iteration # 20     ecut=   124.00 Ry     beta= 0.70
     Davidson diagonalization with overlap
     ethr =  3.40E-04,  avg # of iterations =  2.3

     negative rho (up, down):  1.169E-03 0.000E+00

     total cpu time spent up to now is       29.9 secs

     total energy              =    -448.58270965 Ry
     estimated scf accuracy    <       0.01069863 Ry

     iteration # 21     ecut=   124.00 Ry     beta= 0.70
     Davidson diagonalization with overlap
     ethr =  3.82E-05,  avg # of iterations =  4.5

     negative rho (up, down):  9.223E-04 0.000E+00

     total cpu time spent up to now is       31.6 secs

     total energy              =    -448.56473844 Ry
     estimated scf accuracy    <       0.13805269 Ry

     iteration # 22     ecut=   124.00 Ry     beta= 0.70
     Davidson diagonalization with overlap
     ethr =  3.82E-05,  avg # of iterations =  4.1

     negative rho (up, down):  9.578E-04 0.000E+00

     total cpu time spent up to now is       33.3 secs

     total energy              =    -448.57574602 Ry
     estimated scf accuracy    <       0.00402469 Ry

     iteration # 23     ecut=   124.00 Ry     beta= 0.70
     Davidson diagonalization with overlap
     ethr =  1.44E-05,  avg # of iterations =  1.1

     negative rho (up, down):  7.450E-04 0.000E+00

     total cpu time spent up to now is       34.6 secs

     total energy              =    -448.57647488 Ry
     estimated scf accuracy    <       0.00266184 Ry

     iteration # 24     ecut=   124.00 Ry     beta= 0.70
     Davidson diagonalization with overlap
     ethr =  9.51E-06,  avg # of iterations =  4.0

     negative rho (up, down):  7.396E-04 0.000E+00

     total cpu time spent up to now is       36.3 secs

     total energy              =    -448.57875526 Ry
     estimated scf accuracy    <       0.04201224 Ry

     iteration # 25     ecut=   124.00 Ry     beta= 0.70
     Davidson diagonalization with overlap
     ethr =  9.51E-06,  avg # of iterations =  1.0

     negative rho (up, down):  9.163E-04 0.000E+00

     total cpu time spent up to now is       37.5 secs

     total energy              =    -448.57378675 Ry
     estimated scf accuracy    <       0.04531146 Ry

     iteration # 26     ecut=   124.00 Ry     beta= 0.70
     Davidson diagonalization with overlap
     ethr =  9.51E-06,  avg # of iterations =  3.8

     negative rho (up, down):  9.346E-04 0.000E+00

     total cpu time spent up to now is       39.1 secs

     total energy              =    -448.57536990 Ry
     estimated scf accuracy    <       0.00130296 Ry

     iteration # 27     ecut=   124.00 Ry     beta= 0.70
     Davidson diagonalization with overlap
     ethr =  4.65E-06,  avg # of iterations =  2.0

     negative rho (up, down):  9.345E-04 0.000E+00

     total cpu time spent up to now is       40.5 secs

     total energy              =    -448.57541704 Ry
     estimated scf accuracy    <       0.00033529 Ry

     iteration # 28     ecut=   124.00 Ry     beta= 0.70
     Davidson diagonalization with overlap
     ethr =  1.20E-06,  avg # of iterations =  2.0

     negative rho (up, down):  9.356E-04 0.000E+00

     total cpu time spent up to now is       41.9 secs

     total energy              =    -448.57543545 Ry
     estimated scf accuracy    <       0.00003795 Ry

     iteration # 29     ecut=   124.00 Ry     beta= 0.70
     Davidson diagonalization with overlap
     ethr =  1.36E-07,  avg # of iterations =  4.0

     negative rho (up, down):  9.345E-04 0.000E+00

     total cpu time spent up to now is       43.4 secs

     total energy              =    -448.57544334 Ry
     estimated scf accuracy    <       0.00000161 Ry

     iteration # 30     ecut=   124.00 Ry     beta= 0.70
     Davidson diagonalization with overlap
     ethr =  5.74E-09,  avg # of iterations =  4.7

     negative rho (up, down):  9.346E-04 0.000E+00

     total cpu time spent up to now is       45.1 secs

     total energy              =    -448.57544413 Ry
     estimated scf accuracy    <       0.00000008 Ry

     iteration # 31     ecut=   124.00 Ry     beta= 0.70
     Davidson diagonalization with overlap
     ethr =  2.83E-10,  avg # of iterations =  4.5

     negative rho (up, down):  9.345E-04 0.000E+00

     total cpu time spent up to now is       46.8 secs

     total energy              =    -448.57544416 Ry
     estimated scf accuracy    <       0.00000002 Ry

     iteration # 32     ecut=   124.00 Ry     beta= 0.70
     Davidson diagonalization with overlap
     ethr =  8.77E-11,  avg # of iterations =  3.0

     negative rho (up, down):  9.346E-04 0.000E+00

     total cpu time spent up to now is       48.3 secs

     End of self-consistent calculation

          k = 0.0000 0.0000 0.0000 (  4457 PWs)   bands (ev):

   -71.4581 -41.7185 -37.5157 -37.5157 -37.5157 -17.8391 -17.8391 -17.8391
     8.2285  12.1304  12.1304  14.4713  14.4713  14.4713  16.4923  16.4923
    18.1320  18.1320

          k = 0.0000 0.0000 0.0909 (  4497 PWs)   bands (ev):

   -71.4579 -41.7171 -37.5175 -37.5155 -37.5155 -17.8580 -17.8379 -17.8379
     8.3836  12.1992  12.2030  14.4600  14.4600  14.5036  16.4066  16.5235
    17.9240  17.9240

          k = 0.0000 0.0000 0.1818 (  4525 PWs)   bands (ev):

   -71.4576 -41.7132 -37.5223 -37.5150 -37.5150 -17.9085 -17.8345 -17.8345
     8.8363  12.3728  12.4150  14.4336  14.4336  14.5940  16.1582  16.5899
    17.4359  17.4359

          k = 0.0000 0.0000 0.2727 (  4524 PWs)   bands (ev):

   -71.4570 -41.7081 -37.5284 -37.5142 -37.5142 -17.9740 -17.8302 -17.8302
     9.5473  12.5505  12.7471  14.4089  14.4089  14.7220  15.7757  16.5933
    16.8927  16.8927

          k = 0.0000 0.0000 0.3636 (  4508 PWs)   bands (ev):

   -71.4566 -41.7034 -37.5341 -37.5135 -37.5135 -18.0337 -17.8262 -17.8262
    10.4427  12.5580  13.1552  14.3997  14.3997  14.8518  15.3187  16.3872
    16.4480  16.4480

          k = 0.0000 0.0000 0.4545 (  4500 PWs)   bands (ev):

   -71.4563 -41.7006 -37.5374 -37.5131 -37.5131 -18.0689 -17.8238 -17.8238
    11.3813  12.1977  13.5159  14.4029  14.4029  14.9277  14.9361  16.0928
    16.1974  16.1974

          k = 0.0000 0.0909 0.0909 (  4509 PWs)   bands (ev):

   -71.4578 -41.7156 -37.5178 -37.5169 -37.5153 -17.8583 -17.8550 -17.8366
     8.5362  12.2673  12.2735  14.3925  14.4421  14.5824  16.3937  16.4995
    17.6958  17.7143

          k = 0.0000 0.0909 0.1818 (  4511 PWs)   bands (ev):

   -71.4574 -41.7115 -37.5223 -37.5168 -37.5148 -17.9069 -17.8528 -17.8332
     8.9807  12.4387  12.4782  14.3251  14.3975  14.6797  16.2024  16.5574
    17.2354  17.2692

          k = 0.0000 0.0909 0.2727 (  4515 PWs)   bands (ev):

   -71.4569 -41.7063 -37.5286 -37.5162 -37.5140 -17.9718 -17.8480 -17.8287
     9.6765  12.6135  12.7919  14.2864  14.3461  14.7510  15.8772  16.5117
    16.8083  16.8486

          k = 0.0000 0.0909 0.3636 (  4515 PWs)   bands (ev):

   -71.4564 -41.7014 -37.5343 -37.5157 -37.5133 -18.0310 -17.8435 -17.8245
    10.5471  12.6113  13.1723  14.2863  14.3004  14.7594  15.5011  16.1593
    16.5652  16.6427

          k = 0.0000 0.0909 0.4545 (  4496 PWs)   bands (ev):

   -71.4561 -41.6985 -37.5377 -37.5154 -37.5129 -18.0660 -17.8409 -17.8221
    11.4498  12.2522  13.5053  14.2447  14.3109  14.7202  15.2249  15.8953
    16.4488  16.4633

          k = 0.0000 0.1818 0.1818 (  4505 PWs)   bands (ev):

   -71.4570 -41.7072 -37.5234 -37.5206 -37.5142 -17.9066 -17.8973 -17.8295
     9.3988  12.5658  12.6950  14.1805  14.3127  14.7408  16.2419  16.5252
    16.7932  16.9995

          k = 0.0000 0.1818 0.2727 (  4515 PWs)   bands (ev):

   -71.4565 -41.7014 -37.5291 -37.5215 -37.5135 -17.9661 -17.8954 -17.8246
    10.0430  12.6799  13.0055  14.0785  14.2278  14.6774  16.1041  16.3059
    16.6586  16.8474

          k = 0.0000 0.1818 0.3636 (  4508 PWs)   bands (ev):

   -71.4560 -41.6962 -37.5350 -37.5215 -37.5128 -18.0239 -17.8899 -17.8201
    10.8255  12.6366  13.3369  14.0458  14.1918  14.5056  15.8525  16.0060
    16.7424  16.8587

          k = 0.0000 0.1818 0.4545 (  4484 PWs)   bands (ev):

   -71.4557 -41.6930 -37.5386 -37.5215 -37.5124 -18.0580 -17.8866 -17.8174
    11.5932  12.3186  13.5891  14.0828  14.2021  14.3296  15.6993  15.7947
    16.7373  16.9351

          k = 0.0000 0.2727 0.2727 (  4494 PWs)   bands (ev):

   -71.4560 -41.6951 -37.5307 -37.5274 -37.5127 -17.9632 -17.9523 -17.8192
    10.5808  12.6483  13.3700  13.9042  14.1680  14.4546  16.1109  16.3019
    16.5623  16.9894

          k = 0.0000 0.2727 0.3636 (  4507 PWs)   bands (ev):

   -71.4555 -41.6893 -37.5359 -37.5291 -37.5121 -18.0145 -17.9502 -17.8143
    11.1758  12.5018  13.7390  13.8110  14.1850  14.2670  15.9454  16.2775
    16.6947  17.2169

          k = 0.0000 0.2727 0.4545 (  4488 PWs)   bands (ev):

   -71.4552 -41.6858 -37.5397 -37.5295 -37.5117 -18.0476 -17.9461 -17.8114
    11.6722  12.2628  13.8188  13.9418  13.9679  14.5363  15.7208  16.2471
    16.8476  17.4214

          k = 0.0000 0.3636 0.3636 (  4498 PWs)   bands (ev):

   -71.4550 -41.6830 -37.5374 -37.5355 -37.5115 -18.0087 -18.0024 -17.8090
    11.4706  12.3056  13.6539  13.8943  14.2446  14.5658  16.0367  16.5404
    16.5831  17.5542

          k = 0.0000 0.3636 0.4545 (  4496 PWs)   bands (ev):

   -71.4548 -41.6792 -37.5407 -37.5368 -37.5111 -18.0381 -18.0003 -17.8058
    11.6416  12.1532  13.6091  13.6941  14.5476  15.1164  15.8176  16.6093
    16.7218  17.8063

          k = 0.0000 0.4545 0.4545 (  4512 PWs)   bands (ev):

   -71.4545 -41.6752 -37.5414 -37.5411 -37.5107 -18.0328 -18.0319 -17.8025
    11.5896  12.0818  13.5073  13.5356  15.1647  15.5370  16.1131  16.2689
    16.8470  18.0326

          k = 0.0909 0.0909 0.0909 (  4521 PWs)   bands (ev):

   -71.4577 -41.7140 -37.5176 -37.5176 -37.5163 -17.8583 -17.8537 -17.8537
     8.6865  12.3388  12.3388  14.3731  14.3731  14.6444  16.4353  16.4353
    17.3452  17.9063

          k = 0.0909 0.0909 0.1818 (  4513 PWs)   bands (ev):

   -71.4573 -41.7099 -37.5223 -37.5170 -37.5162 -17.9052 -17.8523 -17.8503
     9.1239  12.5179  12.5283  14.2805  14.3216  14.7103  16.2498  16.5268
    16.9458  17.4149

          k = 0.0909 0.0909 0.2727 (  4510 PWs)   bands (ev):

   -71.4567 -41.7045 -37.5287 -37.5162 -37.5158 -17.9697 -17.8470 -17.8459
     9.8061  12.6947  12.8209  14.2280  14.2511  14.7065  15.9686  16.4686
    16.7727  16.8780

          k = 0.0909 0.0909 0.3636 (  4495 PWs)   bands (ev):

   -71.4563 -41.6995 -37.5345 -37.5155 -37.5154 -18.0285 -17.8420 -17.8418
    10.6546  12.6825  13.1723  14.1650  14.2477  14.6399  15.6514  16.2020
    16.4502  16.8368

          k = 0.0909 0.0909 0.4545 (  4494 PWs)   bands (ev):

   -71.4560 -41.6965 -37.5380 -37.5152 -37.5151 -18.0631 -17.8393 -17.8391
    11.5252  12.3191  13.4789  14.0593  14.3356  14.5696  15.4203  15.9352
    16.2169  16.9137

          k = 0.0909 0.1818 0.1818 (  4516 PWs)   bands (ev):

   -71.4569 -41.7054 -37.5232 -37.5208 -37.5161 -17.9046 -17.8960 -17.8474
     9.5378  12.6501  12.7388  14.1487  14.2266  14.6752  16.2983  16.5018
    16.7015  17.1766

          k = 0.0909 0.1818 0.2727 (  4515 PWs)   bands (ev):

   -71.4564 -41.6996 -37.5290 -37.5214 -37.5155 -17.9640 -17.8938 -17.8422
    10.1738  12.7804  13.0207  14.0403  14.1361  14.5250  16.1753  16.4053
    16.6951  16.8904

          k = 0.0909 0.1818 0.3636 (  4493 PWs)   bands (ev):

   -71.4559 -41.6943 -37.5351 -37.5213 -37.5150 -18.0215 -17.8883 -17.8375
    10.9420  12.7419  13.3018  13.9727  14.1203  14.3756  15.9852  16.0956
    16.5650  17.0975

          k = 0.0909 0.1818 0.4545 (  4495 PWs)   bands (ev):

   -71.4556 -41.6911 -37.5387 -37.5213 -37.5146 -18.0555 -17.8850 -17.8347
    11.6887  12.4147  13.5193  13.9024  14.2111  14.3095  15.8046  15.8708
    16.3884  17.4140

          k = 0.0909 0.2727 0.2727 (  4499 PWs)   bands (ev):

   -71.4558 -41.6933 -37.5304 -37.5275 -37.5149 -17.9609 -17.9509 -17.8367
    10.7122  12.7532  13.3786  13.8700  14.0663  14.2737  16.2099  16.4367
    16.5453  17.0936

          k = 0.0909 0.2727 0.3636 (  4494 PWs)   bands (ev):

   -71.4554 -41.6874 -37.5358 -37.5289 -37.5143 -18.0125 -17.9486 -17.8317
    11.3034  12.6090  13.6918  13.7718  14.0778  14.1647  16.0143  16.3516
    16.6048  17.4347

          k = 0.0909 0.2727 0.4545 (  4493 PWs)   bands (ev):

   -71.4551 -41.6840 -37.5396 -37.5292 -37.5139 -18.0456 -17.9445 -17.8287
    11.7880  12.3728  13.7484  13.7729  14.0081  14.4697  15.7498  16.3346
    16.5320  17.8422

          k = 0.0909 0.3636 0.3636 (  4507 PWs)   bands (ev):

   -71.4549 -41.6811 -37.5371 -37.5354 -37.5137 -18.0067 -18.0009 -17.8264
    11.6005  12.4121  13.6260  13.8165  14.2068  14.4235  16.0157  16.4333
    16.6700  17.8100

          k = 0.0909 0.3636 0.4545 (  4506 PWs)   bands (ev):

   -71.4546 -41.6774 -37.5405 -37.5366 -37.5133 -18.0364 -17.9988 -17.8232
    11.7635  12.2639  13.5788  13.6481  14.4774  14.9672  15.7885  16.3951
    16.7456  18.0163

          k = 0.0909 0.4545 0.4545 (  4504 PWs)   bands (ev):

   -71.4544 -41.6735 -37.5411 -37.5409 -37.5129 -18.0313 -18.0305 -17.8199
    11.7113  12.1920  13.4857  13.5100  15.1070  15.3943  15.9293  15.9922
    16.9154  18.2096

          k = 0.1818 0.1818 0.1818 (  4494 PWs)   bands (ev):

   -71.4565 -41.7008 -37.5225 -37.5225 -37.5198 -17.9019 -17.8924 -17.8924
     9.9377  12.8629  12.8629  14.0631  14.0631  14.4499  16.4331  16.4331
    16.7415  17.3796

          k = 0.1818 0.1818 0.2727 (  4505 PWs)   bands (ev):

   -71.4560 -41.6947 -37.5289 -37.5217 -37.5206 -17.9585 -17.8909 -17.8878
    10.5443  13.0457  13.0583  13.9445  13.9467  14.1883  16.3296  16.4732
    16.8658  16.9946

          k = 0.1818 0.1818 0.3636 (  4495 PWs)   bands (ev):

   -71.4555 -41.6892 -37.5353 -37.5209 -37.5208 -18.0152 -17.8843 -17.8835
    11.2578  12.9699  13.2509  13.8210  13.9619  14.1318  16.2201  16.2219
    16.4646  17.4644

          k = 0.1818 0.1818 0.4545 (  4499 PWs)   bands (ev):

   -71.4552 -41.6858 -37.5391 -37.5209 -37.5205 -18.0488 -17.8810 -17.8802
    11.9187  12.6104  13.4239  13.7052  14.0484  14.2623  15.8535  16.1663
    16.2314  17.7928

          k = 0.1818 0.2727 0.2727 (  4493 PWs)   bands (ev):

   -71.4555 -41.6883 -37.5298 -37.5277 -37.5206 -17.9547 -17.9472 -17.8835
    11.0836  13.0396  13.3993  13.7807  13.8381  13.8980  16.3236  16.4748
    16.7933  17.3915

          k = 0.1818 0.2727 0.3636 (  4488 PWs)   bands (ev):

   -71.4550 -41.6825 -37.5356 -37.5285 -37.5202 -18.0070 -17.9442 -17.8781
    11.6602  12.8912  13.5375  13.6744  13.8539  13.9644  16.1095  16.3238
    16.7037  17.6747

          k = 0.1818 0.2727 0.4545 (  4495 PWs)   bands (ev):

   -71.4547 -41.6789 -37.5396 -37.5286 -37.5199 -18.0399 -17.9403 -17.8748
    12.1029  12.6490  13.5410  13.6105  13.9091  14.3087  15.7797  16.1938
    16.6293  17.8552

          k = 0.1818 0.3636 0.3636 (  4511 PWs)   bands (ev):

   -71.4545 -41.6763 -37.5364 -37.5351 -37.5196 -18.0014 -17.9972 -17.8727
    11.9719  12.6921  13.5554  13.6447  14.0790  14.0920  16.0028  16.1879
    16.9235  17.8145

          k = 0.1818 0.3636 0.4545 (  4503 PWs)   bands (ev):

   -71.4542 -41.6726 -37.5400 -37.5359 -37.5193 -18.0318 -17.9948 -17.8695
    12.1108  12.5558  13.5057  13.5432  14.2521  14.6131  15.7391  16.0630
    16.9863  18.0150

          k = 0.1818 0.4545 0.4545 (  4512 PWs)   bands (ev):

   -71.4540 -41.6688 -37.5404 -37.5402 -37.5189 -18.0272 -18.0267 -17.8663
    12.0603  12.4866  13.4326  13.4493  14.8475  14.9089  15.6426  15.8075
    17.1396  18.2628

          k = 0.2727 0.2727 0.2727 (  4482 PWs)   bands (ev):

   -71.4549 -41.6819 -37.5289 -37.5289 -37.5272 -17.9485 -17.9424 -17.9424
    11.6169  13.4200  13.4200  13.4853  13.6679  13.6679  16.3231  16.3231
    17.1912  17.1912

          k = 0.2727 0.2727 0.3636 (  4495 PWs)   bands (ev):

   -71.4545 -41.6759 -37.5354 -37.5280 -37.5279 -17.9999 -17.9388 -17.9379
    12.1478  13.1280  13.4328  13.5660  13.6444  13.8310  16.0906  16.1477
    17.0645  17.6063

          k = 0.2727 0.2727 0.4545 (  4497 PWs)   bands (ev):

   -71.4542 -41.6724 -37.5395 -37.5281 -37.5275 -18.0326 -17.9352 -17.9344
    12.4751  12.8868  13.4421  13.5009  13.7556  14.1792  15.7329  16.0422
    17.0196  17.8866

          k = 0.2727 0.3636 0.3636 (  4503 PWs)   bands (ev):

   -71.4540 -41.6699 -37.5355 -37.5348 -37.5274 -17.9945 -17.9922 -17.9329
    12.5229  12.9989  13.4744  13.5265  13.7038  13.9120  15.9554  15.9618
    17.3180  17.7764

          k = 0.2727 0.3636 0.4545 (  4511 PWs)   bands (ev):

   -71.4537 -41.6663 -37.5394 -37.5350 -37.5271 -18.0258 -17.9895 -17.9297
    12.6140  12.9008  13.4358  13.4668  13.9134  14.2443  15.6569  15.8911
    17.3697  18.0469

          k = 0.2727 0.4545 0.4545 (  4511 PWs)   bands (ev):

   -71.4535 -41.6627 -37.5394 -37.5393 -37.5266 -18.0220 -18.0216 -17.9267
    12.5818  12.8634  13.3787  13.3968  14.3635  14.3999  15.5174  15.7434
    17.5150  18.2942

          k = 0.3636 0.3636 0.3636 (  4506 PWs)   bands (ev):

   -71.4536 -41.6640 -37.5346 -37.5346 -37.5345 -17.9884 -17.9876 -17.9876
    13.0144  13.1474  13.4207  13.4207  13.7128  13.7128  15.8098  15.8098
    17.7817  17.7817

          k = 0.3636 0.3636 0.4545 (  4511 PWs)   bands (ev):

   -71.4533 -41.6605 -37.5388 -37.5344 -37.5341 -18.0203 -17.9849 -17.9844
    13.0239  13.1309  13.4186  13.5611  13.6276  14.0001  15.5819  15.7457
    17.7924  18.1250

          k = 0.3636 0.4545 0.4545 (  4521 PWs)   bands (ev):

   -71.4530 -41.6571 -37.5385 -37.5385 -37.5337 -18.0171 -18.0170 -17.9817
    13.1175  13.2012  13.3614  13.4324  13.9278  13.9823  15.4848  15.6264
    17.9769  18.3183

          k = 0.4545 0.4545 0.4545 (  4542 PWs)   bands (ev):

   -71.4527 -41.6537 -37.5380 -37.5380 -37.5380 -18.0143 -18.0143 -18.0142
    13.2968  13.4009  13.4009  13.6842  13.7030  13.7030  15.4767  15.4767
    18.3319  18.3319

     the Fermi energy is    15.3269 ev

!    total energy              =    -448.57544417 Ry
     estimated scf accuracy    <          2.1E-09 Ry
     smearing contrib. (-TS)   =       0.00001855 Ry
     internal energy E=F+TS    =    -448.57546272 Ry

     The total energy is F=E-TS. E is the sum of the following terms:
     one-electron contribution =    -167.18047751 Ry
     hartree contribution      =      97.07854452 Ry
     xc contribution           =     -52.69520263 Ry
     ewald contribution        =    -249.62725843 Ry
     one-center paw contrib.   =     -76.15106867 Ry

     convergence has been achieved in  32 iterations

     negative rho (up, down):  9.346E-04 0.000E+00

     Forces acting on atoms (cartesian axes, Ry/au):

     atom    1 type  1   force =     0.00000000    0.00000000    0.00000000
     atom    2 type  2   force =     0.00000000    0.00000000    0.00000000

     Total force =     0.000000     Total SCF correction =     0.000000


     Computing stress (Cartesian axis) and pressure


     negative rho (up, down):  9.346E-04 0.000E+00
          total   stress  (Ry/bohr**3)                   (kbar)     P=     -163.49
  -0.00111136   0.00000000   0.00000000         -163.49        0.00        0.00
   0.00000000  -0.00111136   0.00000000            0.00     -163.49        0.00
   0.00000000   0.00000000  -0.00111136            0.00        0.00     -163.49


     Writing all to output data dir ./TiFe.save/ :
     XML data file, charge density, pseudopotentials, collected wavefunctions

     init_run     :      1.48s CPU      1.54s WALL (       1 calls)
     electrons    :     44.39s CPU     46.61s WALL (       1 calls)
     forces       :      0.26s CPU      0.30s WALL (       1 calls)
     stress       :      1.59s CPU      1.64s WALL (       1 calls)

     Called by init_run:
     wfcinit      :      0.45s CPU      0.47s WALL (       1 calls)
     potinit      :      0.20s CPU      0.21s WALL (       1 calls)
     hinit0       :      0.63s CPU      0.64s WALL (       1 calls)

     Called by electrons:
     c_bands      :     28.73s CPU     29.27s WALL (      32 calls)
     sum_band     :      8.98s CPU      9.82s WALL (      32 calls)
     v_of_rho     :      0.77s CPU      0.84s WALL (      33 calls)
     newd         :      4.19s CPU      4.91s WALL (      33 calls)
     PAW_pot      :      1.76s CPU      1.81s WALL (      33 calls)
     mix_rho      :      0.09s CPU      0.10s WALL (      32 calls)

     Called by c_bands:
     init_us_2    :      0.63s CPU      0.65s WALL (    3752 calls)
     cegterg      :     27.59s CPU     28.08s WALL (    1792 calls)

     Called by *egterg:
     cdiaghg      :      2.27s CPU      2.31s WALL (    6346 calls)
     h_psi        :     22.76s CPU     23.18s WALL (    6402 calls)
     s_psi        :      0.43s CPU      0.44s WALL (    6402 calls)
     g_psi        :      0.09s CPU      0.09s WALL (    4554 calls)

     Called by h_psi:
     h_psi:calbec :      0.87s CPU      0.89s WALL (    6402 calls)
     vloc_psi     :     21.34s CPU     21.73s WALL (    6402 calls)
     add_vuspsi   :      0.45s CPU      0.46s WALL (    6402 calls)

     General routines
     calbec       :      1.26s CPU      1.29s WALL (    9146 calls)
     fft          :      0.88s CPU      0.99s WALL (     452 calls)
     ffts         :      0.12s CPU      0.12s WALL (      65 calls)
     fftw         :     21.67s CPU     22.05s WALL (  192036 calls)
     interpolate  :      0.14s CPU      0.15s WALL (      33 calls)

     Parallel routines

     PWSCF        :     48.03s CPU     50.53s WALL


   This run was terminated on:   0:52:37  25Oct2025            

=------------------------------------------------------------------------------=
   JOB DONE.
=------------------------------------------------------------------------------=
