
     Program PWSCF v.7.4 starts on 25Oct2025 at  0:37:43 

     This program is part of the open-source Quantum ESPRESSO suite
     for quantum simulation of materials; please cite
         "P. Giannozzi et al., J. Phys.:Condens. Matter 21 395502 (2009);
         "P. Giannozzi et al., J. Phys.:Condens. Matter 29 465901 (2017);
         "P. Giannozzi et al., J. Chem. Phys. 152 154105 (2020);
          URL http://www.quantum-espresso.org", 
     in publications or presentations arising from this work. More details at
     http://www.quantum-espresso.org/quote

     Parallel version (MPI & OpenMP), running on       8 processor cores
     Number of MPI processes:                 8
     Threads/MPI process:                     1

     MPI processes distributed on     1 nodes
     210625 MiB available memory on the printing compute node when the environment starts

     Reading input from TiFe_5.in

     Current dimensions of program PWSCF are:
     Max number of different atomic species (ntypx) = 10
     Max number of k-points (npk) =  40000
     Max angular momentum in pseudopotentials (lmaxx) =  4
     file Fe.pbe-spn-kjpaw_psl.0.2.1.UPF: wavefunction(s)  3D renormalized

     IMPORTANT: XC functional enforced from input :
     Exchange-correlation= PBE
                           (   1   4   3   4   0   0   0)
     Any further DFT definition will be discarded
     Please, verify this is what you really want

     Message from routine setup:
     using ibrav=0 with symmetry is DISCOURAGED, use correct ibrav instead

     R & G space division:  proc/nbgrp/npool/nimage =       8
     Subspace diagonalization in iterative solution of the eigenvalue problem:
     a serial algorithm will be used


     Parallelization info
     --------------------
     sticks:   dense  smooth     PW     G-vecs:    dense   smooth      PW
     Min         506     144     42                24316     3713     590
     Max         507     146     43                24319     3717     593
     Sum        4049    1161    341               194543    29711    4729

     Using Slab Decomposition



     bravais-lattice index     =            0
     lattice parameter (alat)  =       5.4210  a.u.
     unit-cell volume          =     159.3100 (a.u.)^3
     number of atoms/cell      =            2
     number of atomic types    =            2
     number of electrons       =        28.00
     number of Kohn-Sham states=           18
     kinetic-energy cutoff     =     124.0000  Ry
     charge density cutoff     =    1736.0000  Ry
     scf convergence threshold =      1.0E-08
     mixing beta               =       0.7000
     number of iterations used =            8  plain     mixing
     Exchange-correlation= PBE
                           (   1   4   3   4   0   0   0)

     celldm(1)=   5.421020  celldm(2)=   0.000000  celldm(3)=   0.000000
     celldm(4)=   0.000000  celldm(5)=   0.000000  celldm(6)=   0.000000

     crystal axes: (cart. coord. in units of alat)
               a(1) = (   1.000000   0.000000   0.000000 )  
               a(2) = (   0.000000   1.000000   0.000000 )  
               a(3) = (   0.000000   0.000000   1.000000 )  

     reciprocal axes: (cart. coord. in units 2 pi/alat)
               b(1) = (  1.000000  0.000000  0.000000 )  
               b(2) = (  0.000000  1.000000  0.000000 )  
               b(3) = (  0.000000  0.000000  1.000000 )  


     PseudoPot. # 1 for Fe read from file:
     ../pseudos/Fe.pbe-spn-kjpaw_psl.0.2.1.UPF
     MD5 check sum: e86618425769142926afa95317d90200
     Pseudo is Projector augmented-wave + core cor, Zval = 16.0
     Generated using "atomic" code by A. Dal Corso  v.5.0.99 svn rev. 10869
     Shape of augmentation charge: PSQ
     Using radial grid of 1191 points,  6 beta functions with: 
                l(1) =   0
                l(2) =   0
                l(3) =   1
                l(4) =   1
                l(5) =   2
                l(6) =   2
     Q(r) pseudized with 0 coefficients 


     PseudoPot. # 2 for Ti read from file:
     ../pseudos/ti_pbe_v1.4.uspp.F.UPF
     MD5 check sum: 88a00a6731bd790ddea75d31a80cb452
     Pseudo is Ultrasoft + core correction, Zval = 12.0
     Generated by new atomic code, or converted to UPF format
     Using radial grid of  851 points,  6 beta functions with: 
                l(1) =   0
                l(2) =   0
                l(3) =   1
                l(4) =   1
                l(5) =   2
                l(6) =   2
     Q(r) pseudized with  6 coefficients,  rinner =    1.000   1.000   1.000
                                                       1.000   1.000

     atomic species   valence    mass     pseudopotential
     Fe               16.00    55.84500     Fe( 1.00)
     Ti               12.00    47.86700     Ti( 1.00)

     48 Sym. Ops., with inversion, found



   Cartesian axes

     site n.     atom                  positions (alat units)
         1        Fe     tau(   1) = (   0.5000000   0.5000000   0.5000000  )
         2        Ti     tau(   2) = (   0.0000000   0.0000000   0.0000000  )

     number of k points=    56  Marzari-Vanderbilt smearing, width (Ry)=  0.0050
                       cart. coord. in units 2pi/alat
        k(    1) = (   0.0000000   0.0000000   0.0000000), wk =   0.0015026
        k(    2) = (   0.0000000   0.0000000   0.0909091), wk =   0.0090158
        k(    3) = (   0.0000000   0.0000000   0.1818182), wk =   0.0090158
        k(    4) = (   0.0000000   0.0000000   0.2727273), wk =   0.0090158
        k(    5) = (   0.0000000   0.0000000   0.3636364), wk =   0.0090158
        k(    6) = (   0.0000000   0.0000000   0.4545455), wk =   0.0090158
        k(    7) = (   0.0000000   0.0909091   0.0909091), wk =   0.0180316
        k(    8) = (   0.0000000   0.0909091   0.1818182), wk =   0.0360631
        k(    9) = (   0.0000000   0.0909091   0.2727273), wk =   0.0360631
        k(   10) = (   0.0000000   0.0909091   0.3636364), wk =   0.0360631
        k(   11) = (   0.0000000   0.0909091   0.4545455), wk =   0.0360631
        k(   12) = (   0.0000000   0.1818182   0.1818182), wk =   0.0180316
        k(   13) = (   0.0000000   0.1818182   0.2727273), wk =   0.0360631
        k(   14) = (   0.0000000   0.1818182   0.3636364), wk =   0.0360631
        k(   15) = (   0.0000000   0.1818182   0.4545455), wk =   0.0360631
        k(   16) = (   0.0000000   0.2727273   0.2727273), wk =   0.0180316
        k(   17) = (   0.0000000   0.2727273   0.3636364), wk =   0.0360631
        k(   18) = (   0.0000000   0.2727273   0.4545455), wk =   0.0360631
        k(   19) = (   0.0000000   0.3636364   0.3636364), wk =   0.0180316
        k(   20) = (   0.0000000   0.3636364   0.4545455), wk =   0.0360631
        k(   21) = (   0.0000000   0.4545455   0.4545455), wk =   0.0180316
        k(   22) = (   0.0909091   0.0909091   0.0909091), wk =   0.0120210
        k(   23) = (   0.0909091   0.0909091   0.1818182), wk =   0.0360631
        k(   24) = (   0.0909091   0.0909091   0.2727273), wk =   0.0360631
        k(   25) = (   0.0909091   0.0909091   0.3636364), wk =   0.0360631
        k(   26) = (   0.0909091   0.0909091   0.4545455), wk =   0.0360631
        k(   27) = (   0.0909091   0.1818182   0.1818182), wk =   0.0360631
        k(   28) = (   0.0909091   0.1818182   0.2727273), wk =   0.0721262
        k(   29) = (   0.0909091   0.1818182   0.3636364), wk =   0.0721262
        k(   30) = (   0.0909091   0.1818182   0.4545455), wk =   0.0721262
        k(   31) = (   0.0909091   0.2727273   0.2727273), wk =   0.0360631
        k(   32) = (   0.0909091   0.2727273   0.3636364), wk =   0.0721262
        k(   33) = (   0.0909091   0.2727273   0.4545455), wk =   0.0721262
        k(   34) = (   0.0909091   0.3636364   0.3636364), wk =   0.0360631
        k(   35) = (   0.0909091   0.3636364   0.4545455), wk =   0.0721262
        k(   36) = (   0.0909091   0.4545455   0.4545455), wk =   0.0360631
        k(   37) = (   0.1818182   0.1818182   0.1818182), wk =   0.0120210
        k(   38) = (   0.1818182   0.1818182   0.2727273), wk =   0.0360631
        k(   39) = (   0.1818182   0.1818182   0.3636364), wk =   0.0360631
        k(   40) = (   0.1818182   0.1818182   0.4545455), wk =   0.0360631
        k(   41) = (   0.1818182   0.2727273   0.2727273), wk =   0.0360631
        k(   42) = (   0.1818182   0.2727273   0.3636364), wk =   0.0721262
        k(   43) = (   0.1818182   0.2727273   0.4545455), wk =   0.0721262
        k(   44) = (   0.1818182   0.3636364   0.3636364), wk =   0.0360631
        k(   45) = (   0.1818182   0.3636364   0.4545455), wk =   0.0721262
        k(   46) = (   0.1818182   0.4545455   0.4545455), wk =   0.0360631
        k(   47) = (   0.2727273   0.2727273   0.2727273), wk =   0.0120210
        k(   48) = (   0.2727273   0.2727273   0.3636364), wk =   0.0360631
        k(   49) = (   0.2727273   0.2727273   0.4545455), wk =   0.0360631
        k(   50) = (   0.2727273   0.3636364   0.3636364), wk =   0.0360631
        k(   51) = (   0.2727273   0.3636364   0.4545455), wk =   0.0721262
        k(   52) = (   0.2727273   0.4545455   0.4545455), wk =   0.0360631
        k(   53) = (   0.3636364   0.3636364   0.3636364), wk =   0.0120210
        k(   54) = (   0.3636364   0.3636364   0.4545455), wk =   0.0360631
        k(   55) = (   0.3636364   0.4545455   0.4545455), wk =   0.0360631
        k(   56) = (   0.4545455   0.4545455   0.4545455), wk =   0.0120210

     Dense  grid:   194543 G-vectors     FFT dimensions: (  72,  72,  72)

     Smooth grid:    29711 G-vectors     FFT dimensions: (  40,  40,  40)

     Estimated max dynamical RAM per process >     102.68 MB

     Estimated total dynamical RAM >     821.47 MB

     Check: negative core charge=   -0.000002

     Initial potential from superposition of free atoms

     starting charge      26.9995, renormalised to      28.0000

     negative rho (up, down):  1.342E-03 0.000E+00
     Starting wfcs are   23 randomized atomic wfcs
     Checking if some PAW data can be deallocated... 

     total cpu time spent up to now is        1.7 secs

     per-process dynamical memory:   133.4 Mb

     Self-consistent Calculation

     iteration #  1     ecut=   124.00 Ry     beta= 0.70
     Davidson diagonalization with overlap
     ethr =  1.00E-02,  avg # of iterations =  2.1

     negative rho (up, down):  5.847E-05 0.000E+00

     total cpu time spent up to now is        2.8 secs

     total energy              =    -436.17974875 Ry
     estimated scf accuracy    <      15.88978686 Ry

     iteration #  2     ecut=   124.00 Ry     beta= 0.70
     Davidson diagonalization with overlap
     ethr =  1.00E-02,  avg # of iterations =  6.1

     negative rho (up, down):  5.379E-05 0.000E+00

     total cpu time spent up to now is        4.4 secs

     total energy              =    -448.48101938 Ry
     estimated scf accuracy    <      60.90792554 Ry

     iteration #  3     ecut=   124.00 Ry     beta= 0.70
     Davidson diagonalization with overlap
     ethr =  1.00E-02,  avg # of iterations =  3.1

     negative rho (up, down):  2.841E-04 0.000E+00

     total cpu time spent up to now is        5.6 secs

     total energy              =    -448.48097517 Ry
     estimated scf accuracy    <      15.39873685 Ry

     iteration #  4     ecut=   124.00 Ry     beta= 0.70
     Davidson diagonalization with overlap
     ethr =  1.00E-02,  avg # of iterations =  2.1
     Minimization algorithm failed to find Fermi energy: reverting to bisection
     Possible cause: smearing is larger than the electronic band-gap.

     negative rho (up, down):  2.856E-04 0.000E+00

     total cpu time spent up to now is        6.7 secs

     total energy              =    -449.04103641 Ry
     estimated scf accuracy    <       3.91773790 Ry

     iteration #  5     ecut=   124.00 Ry     beta= 0.70
     Davidson diagonalization with overlap
     ethr =  1.00E-02,  avg # of iterations =  1.0

     negative rho (up, down):  3.465E-04 0.000E+00

     total cpu time spent up to now is        7.6 secs

     total energy              =    -448.78584182 Ry
     estimated scf accuracy    <       3.66925218 Ry

     iteration #  6     ecut=   124.00 Ry     beta= 0.70
     Davidson diagonalization with overlap
     ethr =  1.00E-02,  avg # of iterations =  1.0

     negative rho (up, down):  3.983E-04 0.000E+00

     total cpu time spent up to now is        8.5 secs

     total energy              =    -448.70828218 Ry
     estimated scf accuracy    <       1.64831350 Ry

     iteration #  7     ecut=   124.00 Ry     beta= 0.70
     Davidson diagonalization with overlap
     ethr =  5.89E-03,  avg # of iterations =  1.0

     negative rho (up, down):  8.927E-04 0.000E+00

     total cpu time spent up to now is        9.4 secs

     total energy              =    -448.43441730 Ry
     estimated scf accuracy    <       0.80315257 Ry

     iteration #  8     ecut=   124.00 Ry     beta= 0.70
     Davidson diagonalization with overlap
     ethr =  2.87E-03,  avg # of iterations =  4.8

     negative rho (up, down):  6.396E-04 0.000E+00

     total cpu time spent up to now is       10.6 secs

     total energy              =    -448.10747166 Ry
     estimated scf accuracy    <       5.85311092 Ry

     iteration #  9     ecut=   124.00 Ry     beta= 0.70
     Davidson diagonalization with overlap
     ethr =  2.87E-03,  avg # of iterations =  3.8

     negative rho (up, down):  8.682E-04 0.000E+00

     total cpu time spent up to now is       11.7 secs

     total energy              =    -448.79203613 Ry
     estimated scf accuracy    <       0.95159547 Ry

     iteration # 10     ecut=   124.00 Ry     beta= 0.70
     Davidson diagonalization with overlap
     ethr =  2.87E-03,  avg # of iterations =  1.1

     negative rho (up, down):  8.051E-04 0.000E+00

     total cpu time spent up to now is       12.6 secs

     total energy              =    -448.82797455 Ry
     estimated scf accuracy    <       1.53109602 Ry

     iteration # 11     ecut=   124.00 Ry     beta= 0.70
     Davidson diagonalization with overlap
     ethr =  2.87E-03,  avg # of iterations =  1.0

     negative rho (up, down):  1.210E-03 0.000E+00

     total cpu time spent up to now is       13.5 secs

     total energy              =    -449.35340774 Ry
     estimated scf accuracy    <       1.76168408 Ry

     iteration # 12     ecut=   124.00 Ry     beta= 0.70
     Davidson diagonalization with overlap
     ethr =  2.87E-03,  avg # of iterations =  3.0

     negative rho (up, down):  8.738E-04 0.000E+00

     total cpu time spent up to now is       14.5 secs

     WARNING: integrated charge=    28.00077082, expected=    28.00000000

     total energy              =    -448.95913380 Ry
     estimated scf accuracy    <       9.67561663 Ry

     iteration # 13     ecut=   124.00 Ry     beta= 0.70
     Davidson diagonalization with overlap
     ethr =  2.87E-03,  avg # of iterations =  2.1

     negative rho (up, down):  2.209E-04 0.000E+00

     total cpu time spent up to now is       15.5 secs

     WARNING: integrated charge=    28.00138221, expected=    28.00000000

     total energy              =    -449.03971422 Ry
     estimated scf accuracy    <       5.21640783 Ry

     iteration # 14     ecut=   124.00 Ry     beta= 0.70
     Davidson diagonalization with overlap
     ethr =  2.87E-03,  avg # of iterations =  2.0

     negative rho (up, down):  1.686E-03 0.000E+00

     total cpu time spent up to now is       16.5 secs

     WARNING: integrated charge=    27.99931355, expected=    28.00000000

     total energy              =    -447.75407790 Ry
     estimated scf accuracy    <       4.32635775 Ry

     iteration # 15     ecut=   124.00 Ry     beta= 0.70
     Davidson diagonalization with overlap
     ethr =  2.87E-03,  avg # of iterations =  4.9

     negative rho (up, down):  1.713E-03 0.000E+00

     total cpu time spent up to now is       17.9 secs

     WARNING: integrated charge=    27.99907391, expected=    28.00000000

     total energy              =    -449.15660733 Ry
     estimated scf accuracy    <       9.72771378 Ry

     iteration # 16     ecut=   124.00 Ry     beta= 0.70
     Davidson diagonalization with overlap
     ethr =  2.87E-03,  avg # of iterations =  1.2

     negative rho (up, down):  1.016E-04 0.000E+00

     total cpu time spent up to now is       18.8 secs

     WARNING: integrated charge=    28.00068556, expected=    28.00000000

     total energy              =    -446.84723493 Ry
     estimated scf accuracy    <      12.06842032 Ry

     iteration # 17     ecut=   124.00 Ry     beta= 0.70
     Davidson diagonalization with overlap
     ethr =  2.87E-03,  avg # of iterations =  4.6

     negative rho (up, down):  5.025E-04 0.000E+00

     total cpu time spent up to now is       20.0 secs

     WARNING: integrated charge=    28.00517635, expected=    28.00000000

     total energy              =    -448.44851675 Ry
     estimated scf accuracy    <       2.28324242 Ry

     iteration # 18     ecut=   124.00 Ry     beta= 0.70
     Davidson diagonalization with overlap
     ethr =  2.87E-03,  avg # of iterations =  2.1

     negative rho (up, down):  6.275E-04 0.000E+00

     total cpu time spent up to now is       21.0 secs

     WARNING: integrated charge=    28.00150615, expected=    28.00000000

     total energy              =    -448.59662307 Ry
     estimated scf accuracy    <       0.15266911 Ry

     iteration # 19     ecut=   124.00 Ry     beta= 0.70
     Davidson diagonalization with overlap
     ethr =  5.45E-04,  avg # of iterations =  2.2

     negative rho (up, down):  8.832E-04 0.000E+00

     total cpu time spent up to now is       22.0 secs

     WARNING: integrated charge=    27.99924261, expected=    28.00000000

     total energy              =    -448.59549370 Ry
     estimated scf accuracy    <       1.45012387 Ry

     iteration # 20     ecut=   124.00 Ry     beta= 0.70
     Davidson diagonalization with overlap
     ethr =  5.45E-04,  avg # of iterations =  1.6

     negative rho (up, down):  1.065E-03 0.000E+00

     total cpu time spent up to now is       23.0 secs

     WARNING: integrated charge=    28.00051866, expected=    28.00000000

     total energy              =    -448.56780062 Ry
     estimated scf accuracy    <       0.62549237 Ry

     iteration # 21     ecut=   124.00 Ry     beta= 0.70
     Davidson diagonalization with overlap
     ethr =  5.45E-04,  avg # of iterations =  2.0

     negative rho (up, down):  1.204E-03 0.000E+00

     total cpu time spent up to now is       23.9 secs

     WARNING: integrated charge=    27.99945704, expected=    28.00000000

     total energy              =    -448.55705333 Ry
     estimated scf accuracy    <       0.12306625 Ry

     iteration # 22     ecut=   124.00 Ry     beta= 0.70
     Davidson diagonalization with overlap
     ethr =  4.40E-04,  avg # of iterations =  3.9

     negative rho (up, down):  8.470E-04 0.000E+00

     total cpu time spent up to now is       24.9 secs

     WARNING: integrated charge=    27.99946120, expected=    28.00000000

     total energy              =    -448.54225578 Ry
     estimated scf accuracy    <       0.30543064 Ry

     iteration # 23     ecut=   124.00 Ry     beta= 0.70
     Davidson diagonalization with overlap
     ethr =  4.40E-04,  avg # of iterations =  3.4

     negative rho (up, down):  6.764E-04 0.000E+00

     total cpu time spent up to now is       26.0 secs

     WARNING: integrated charge=    27.99852699, expected=    28.00000000

     total energy              =    -448.59089952 Ry
     estimated scf accuracy    <       0.02516440 Ry

     iteration # 24     ecut=   124.00 Ry     beta= 0.70
     Davidson diagonalization with overlap
     ethr =  8.99E-05,  avg # of iterations =  3.8

     negative rho (up, down):  6.739E-04 0.000E+00

     total cpu time spent up to now is       27.1 secs

     WARNING: integrated charge=    27.99892608, expected=    28.00000000

     total energy              =    -448.59887722 Ry
     estimated scf accuracy    <       0.16967433 Ry

     iteration # 25     ecut=   124.00 Ry     beta= 0.70
     Davidson diagonalization with overlap
     ethr =  8.99E-05,  avg # of iterations =  1.0

     negative rho (up, down):  9.757E-04 0.000E+00

     total cpu time spent up to now is       28.0 secs

     WARNING: integrated charge=    28.00104585, expected=    28.00000000

     total energy              =    -448.56289923 Ry
     estimated scf accuracy    <       0.17766886 Ry

     iteration # 26     ecut=   124.00 Ry     beta= 0.70
     Davidson diagonalization with overlap
     ethr =  8.99E-05,  avg # of iterations =  3.9

     negative rho (up, down):  9.906E-04 0.000E+00

     total cpu time spent up to now is       29.2 secs

     WARNING: integrated charge=    28.00065745, expected=    28.00000000

     total energy              =    -448.57703144 Ry
     estimated scf accuracy    <       0.00053287 Ry

     iteration # 27     ecut=   124.00 Ry     beta= 0.70
     Davidson diagonalization with overlap
     ethr =  1.90E-06,  avg # of iterations =  5.0

     negative rho (up, down):  9.883E-04 0.000E+00

     total cpu time spent up to now is       30.5 secs

     WARNING: integrated charge=    28.00048354, expected=    28.00000000

     total energy              =    -448.57732523 Ry
     estimated scf accuracy    <       0.00054187 Ry

     iteration # 28     ecut=   124.00 Ry     beta= 0.70
     Davidson diagonalization with overlap
     ethr =  1.90E-06,  avg # of iterations =  1.1

     negative rho (up, down):  9.550E-04 0.000E+00

     total cpu time spent up to now is       31.4 secs

     WARNING: integrated charge=    28.00003369, expected=    28.00000000

     total energy              =    -448.57705398 Ry
     estimated scf accuracy    <       0.00100866 Ry

     iteration # 29     ecut=   124.00 Ry     beta= 0.70
     Davidson diagonalization with overlap
     ethr =  1.90E-06,  avg # of iterations =  3.6

     negative rho (up, down):  9.730E-04 0.000E+00

     total cpu time spent up to now is       32.6 secs

     WARNING: integrated charge=    28.00019446, expected=    28.00000000

     total energy              =    -448.57720317 Ry
     estimated scf accuracy    <       0.00043445 Ry

     iteration # 30     ecut=   124.00 Ry     beta= 0.70
     Davidson diagonalization with overlap
     ethr =  1.55E-06,  avg # of iterations =  1.5

     negative rho (up, down):  9.730E-04 0.000E+00

     total cpu time spent up to now is       33.5 secs

     WARNING: integrated charge=    28.00004617, expected=    28.00000000

     total energy              =    -448.57723158 Ry
     estimated scf accuracy    <       0.00005613 Ry

     iteration # 31     ecut=   124.00 Ry     beta= 0.70
     Davidson diagonalization with overlap
     ethr =  2.00E-07,  avg # of iterations =  3.0

     negative rho (up, down):  9.731E-04 0.000E+00

     total cpu time spent up to now is       34.5 secs

     WARNING: integrated charge=    28.00000646, expected=    28.00000000

     total energy              =    -448.57723749 Ry
     estimated scf accuracy    <       0.00000087 Ry

     iteration # 32     ecut=   124.00 Ry     beta= 0.70
     Davidson diagonalization with overlap
     ethr =  3.10E-09,  avg # of iterations =  4.7

     negative rho (up, down):  9.735E-04 0.000E+00

     total cpu time spent up to now is       35.7 secs

     WARNING: integrated charge=    27.99999443, expected=    28.00000000

     total energy              =    -448.57723888 Ry
     estimated scf accuracy    <       0.00000793 Ry

     iteration # 33     ecut=   124.00 Ry     beta= 0.70
     Davidson diagonalization with overlap
     ethr =  3.10E-09,  avg # of iterations =  1.2

     negative rho (up, down):  9.718E-04 0.000E+00

     total cpu time spent up to now is       36.6 secs

     total energy              =    -448.57723652 Ry
     estimated scf accuracy    <       0.00001399 Ry

     iteration # 34     ecut=   124.00 Ry     beta= 0.70
     Davidson diagonalization with overlap
     ethr =  3.10E-09,  avg # of iterations =  4.0

     negative rho (up, down):  9.716E-04 0.000E+00

     total cpu time spent up to now is       37.8 secs

     WARNING: integrated charge=    27.99999432, expected=    28.00000000

     total energy              =    -448.57723761 Ry
     estimated scf accuracy    <       0.00000004 Ry

     iteration # 35     ecut=   124.00 Ry     beta= 0.70
     Davidson diagonalization with overlap
     ethr =  1.60E-10,  avg # of iterations =  3.7

     negative rho (up, down):  9.719E-04 0.000E+00

     total cpu time spent up to now is       38.9 secs

     total energy              =    -448.57723759 Ry
     estimated scf accuracy    <       0.00000007 Ry

     iteration # 36     ecut=   124.00 Ry     beta= 0.70
     Davidson diagonalization with overlap
     ethr =  1.60E-10,  avg # of iterations =  2.2

     negative rho (up, down):  9.720E-04 0.000E+00

     total cpu time spent up to now is       40.0 secs

     End of self-consistent calculation

          k = 0.0000 0.0000 0.0000 (  3743 PWs)   bands (ev):

   -67.7307 -37.4744 -33.7952 -33.7952 -33.7952 -13.5436 -13.5436 -13.5436
    11.4661  14.9886  14.9886  18.0906  18.0906  18.0906  20.6452  20.6452
    22.7863  22.7863

          k = 0.0000 0.0000 0.0909 (  3751 PWs)   bands (ev):

   -67.7303 -37.4718 -33.7982 -33.7947 -33.7947 -13.5815 -13.5415 -13.5415
    11.6511  15.0787  15.0939  18.0770  18.0770  18.1323  20.5255  20.6912
    22.5067  22.5067

          k = 0.0000 0.0000 0.1818 (  3751 PWs)   bands (ev):

   -67.7292 -37.4651 -33.8060 -33.7932 -33.7932 -13.6821 -13.5359 -13.5359
    12.1857  15.3429  15.3710  18.0465  18.0465  18.2491  20.1801  20.7990
    21.8588  21.8588

          k = 0.0000 0.0000 0.2727 (  3715 PWs)   bands (ev):

   -67.7278 -37.4563 -33.8160 -33.7913 -33.7913 -13.8119 -13.5285 -13.5285
    13.0083  15.7026  15.7598  18.0224  18.0224  18.4155  19.6535  20.8581
    21.1433  21.1433

          k = 0.0000 0.0000 0.3636 (  3707 PWs)   bands (ev):

   -67.7265 -37.4483 -33.8252 -33.7896 -33.7896 -13.9293 -13.5218 -13.5218
    14.0080  15.8945  16.2786  18.0219  18.0219  18.5855  19.0306  20.5567
    20.5567  20.6871

          k = 0.0000 0.0000 0.4545 (  3716 PWs)   bands (ev):

   -67.7258 -37.4435 -33.8306 -33.7885 -33.7885 -13.9983 -13.5177 -13.5177
    14.9876  15.7118  16.7482  18.0360  18.0360  18.4977  18.6966  20.2236
    20.2236  20.3693

          k = 0.0000 0.0909 0.0909 (  3759 PWs)   bands (ev):

   -67.7299 -37.4691 -33.7999 -33.7957 -33.7942 -13.5835 -13.5744 -13.5393
    11.8320  15.1690  15.1951  17.9840  18.0549  18.2410  20.5088  20.6582
    22.1989  22.2289

          k = 0.0000 0.0909 0.1818 (  3734 PWs)   bands (ev):

   -67.7288 -37.4617 -33.8072 -33.7956 -33.7927 -13.6790 -13.5717 -13.5334
    12.3532  15.4119  15.4796  17.8948  18.0016  18.3730  20.2430  20.7524
    21.6000  21.6316

          k = 0.0000 0.0909 0.2727 (  3720 PWs)   bands (ev):

   -67.7274 -37.4521 -33.8174 -33.7949 -33.7908 -13.8072 -13.5632 -13.5256
    13.1508  15.7475  15.8627  17.8486  17.9430  18.4681  19.7943  20.7370
    21.0499  21.0777

          k = 0.0000 0.0909 0.3636 (  3710 PWs)   bands (ev):

   -67.7261 -37.4434 -33.8268 -33.7941 -33.7891 -13.9232 -13.5553 -13.5184
    14.1107  15.9410  16.3264  17.8595  17.8894  18.4724  19.2857  20.2809
    20.7099  20.9188

          k = 0.0000 0.0909 0.4545 (  3702 PWs)   bands (ev):

   -67.7254 -37.4382 -33.8323 -33.7936 -33.7881 -13.9914 -13.5505 -13.5141
    15.0378  15.7517  16.7492  17.8112  17.9069  18.4057  18.9270  19.9670
    20.5644  20.7241

          k = 0.0000 0.1818 0.1818 (  3729 PWs)   bands (ev):

   -67.7278 -37.4527 -33.8123 -33.8004 -33.7913 -13.6816 -13.6562 -13.5266
    12.8306  15.5781  15.7951  17.6997  17.9009  18.4626  20.3043  20.7048
    21.0336  21.2693

          k = 0.0000 0.1818 0.2727 (  3713 PWs)   bands (ev):

   -67.7264 -37.4410 -33.8216 -33.8040 -33.7895 -13.7950 -13.6550 -13.5176
    13.5419  15.7799  16.2230  17.5655  17.8095  18.3789  20.1044  20.4458
    20.8839  21.0724

          k = 0.0000 0.1818 0.3636 (  3706 PWs)   bands (ev):

   -67.7251 -37.4302 -33.8312 -33.8062 -33.7878 -13.9070 -13.6443 -13.5094
    14.3561  15.8758  16.6496  17.5280  17.7894  18.1421  19.7661  20.0798
    21.0451  21.0993

          k = 0.0000 0.1818 0.4545 (  3717 PWs)   bands (ev):

   -67.7243 -37.4237 -33.8369 -33.8074 -33.7869 -13.9730 -13.6378 -13.5045
    15.0760  15.7142  16.9465  17.5900  17.8425  17.8931  19.5804  19.8169
    21.0943  21.2113

          k = 0.0000 0.2727 0.2727 (  3728 PWs)   bands (ev):

   -67.7250 -37.4263 -33.8286 -33.8144 -33.7878 -13.7911 -13.7615 -13.5072
    14.0736  15.7695  16.7317  17.3336  17.7804  18.0802  20.2041  20.3579
    20.7831  21.2675

          k = 0.0000 0.2727 0.3636 (  3709 PWs)   bands (ev):

   -67.7237 -37.4128 -33.8372 -33.8218 -33.7862 -13.8859 -13.7593 -13.4976
    14.5881  15.6747  17.2129  17.2304  17.7171  17.9834  20.0106  20.3390
    20.9846  21.5775

          k = 0.0000 0.2727 0.4545 (  3714 PWs)   bands (ev):

   -67.7230 -37.4047 -33.8431 -33.8253 -33.7853 -13.9489 -13.7507 -13.4919
    14.9424  15.5247  17.2301  17.4218  17.5058  18.3934  19.7531  20.2829
    21.2482  21.8556

          k = 0.0000 0.3636 0.3636 (  3712 PWs)   bands (ev):

   -67.7224 -37.3967 -33.8436 -33.8353 -33.7847 -13.8735 -13.8564 -13.4867
    14.6985  15.4625  17.0058  17.3305  17.9026  18.4550  20.1691  20.7341
    20.8157  22.0288

          k = 0.0000 0.3636 0.4545 (  3708 PWs)   bands (ev):

   -67.7217 -37.3871 -33.8489 -33.8418 -33.7838 -13.9266 -13.8529 -13.4802
    14.7233  15.3303  16.9496  17.0629  18.3162  19.1589  19.9185  20.8105
    21.0681  22.3675

          k = 0.0000 0.4545 0.4545 (  3688 PWs)   bands (ev):

   -67.7209 -37.3766 -33.8525 -33.8514 -33.7830 -13.9144 -13.9120 -13.4733
    14.5768  15.2169  16.8155  16.8536  19.0601  19.6107  20.3830  20.5874
    21.1002  22.6704

          k = 0.0909 0.0909 0.0909 (  3761 PWs)   bands (ev):

   -67.7295 -37.4661 -33.7993 -33.7993 -33.7937 -13.5846 -13.5723 -13.5723
    12.0094  15.2762  15.2762  17.9595  17.9595  18.3295  20.5683  20.5683
    21.7361  22.4842

          k = 0.0909 0.0909 0.1818 (  3725 PWs)   bands (ev):

   -67.7284 -37.4583 -33.8077 -33.7978 -33.7934 -13.6759 -13.5715 -13.5666
    12.5194  15.5123  15.5560  17.8369  17.8950  18.4239  20.3096  20.7093
    21.2113  21.8343

          k = 0.0909 0.0909 0.2727 (  3728 PWs)   bands (ev):

   -67.7270 -37.4480 -33.8184 -33.7958 -33.7934 -13.8026 -13.5613 -13.5591
    13.2956  15.8793  15.8806  17.7752  17.8079  18.4187  19.9202  20.6685
    21.0043  21.1314

          k = 0.0909 0.0909 0.3636 (  3714 PWs)   bands (ev):

   -67.7257 -37.4385 -33.8281 -33.7940 -33.7934 -13.9174 -13.5522 -13.5517
    14.2212  16.0372  16.3240  17.6997  17.8154  18.3187  19.4883  20.3745
    20.5718  21.1294

          k = 0.0909 0.0909 0.4545 (  3706 PWs)   bands (ev):

   -67.7250 -37.4329 -33.8338 -33.7934 -33.7929 -13.9849 -13.5480 -13.5461
    15.1044  15.8202  16.7142  17.5628  17.9521  18.2150  19.1822  20.0820
    20.2642  21.2553

          k = 0.0909 0.1818 0.1818 (  3722 PWs)   bands (ev):

   -67.7274 -37.4489 -33.8117 -33.8025 -33.7938 -13.6773 -13.6540 -13.5616
    12.9921  15.6962  15.8493  17.6595  17.7771  18.3864  20.3834  20.6723
    20.9029  21.5193

          k = 0.0909 0.1818 0.2727 (  3713 PWs)   bands (ev):

   -67.7260 -37.4367 -33.8216 -33.8046 -33.7934 -13.7906 -13.6519 -13.5520
    13.6934  15.9119  16.2443  17.5188  17.6761  18.1827  20.2078  20.5827
    20.9186  21.1439

          k = 0.0909 0.1818 0.3636 (  3712 PWs)   bands (ev):

   -67.7247 -37.4255 -33.8318 -33.8060 -33.7926 -13.9019 -13.6412 -13.5431
    14.4890  16.0180  16.5954  17.4427  17.6783  17.9751  19.9356  20.2123
    20.7759  21.4523

          k = 0.0909 0.1818 0.4545 (  3714 PWs)   bands (ev):

   -67.7239 -37.4188 -33.8379 -33.8069 -33.7919 -13.9675 -13.6347 -13.5377
    15.1855  15.8364  16.8296  17.3816  17.7809  17.9354  19.7471  19.8996
    20.5587  21.8949

          k = 0.0909 0.2727 0.2727 (  3717 PWs)   bands (ev):

   -67.7246 -37.4219 -33.8280 -33.8152 -33.7923 -13.7860 -13.7592 -13.5413
    14.2322  15.9070  16.7413  17.2930  17.6286  17.8473  20.3346  20.5275
    20.7649  21.4251

          k = 0.0909 0.2727 0.3636 (  3710 PWs)   bands (ev):

   -67.7233 -37.4083 -33.8370 -33.8218 -33.7911 -13.8817 -13.7563 -13.5314
    14.7433  15.8131  17.1336  17.1924  17.5978  17.8255  20.1023  20.4380
    20.8486  21.8887

          k = 0.0909 0.2727 0.4545 (  3711 PWs)   bands (ev):

   -67.7226 -37.4002 -33.8434 -33.8248 -33.7903 -13.9446 -13.7479 -13.5255
    15.0813  15.6625  17.1380  17.2089  17.5782  18.2824  19.7969  20.3973
    20.7821  22.4220

          k = 0.0909 0.3636 0.3636 (  3715 PWs)   bands (ev):

   -67.7221 -37.3924 -33.8429 -33.8353 -33.7897 -13.8696 -13.8542 -13.5206
    14.8546  15.6005  16.9738  17.2340  17.8579  18.2622  20.1181  20.6810
    20.8433  22.3839

          k = 0.0909 0.3636 0.4545 (  3708 PWs)   bands (ev):

   -67.7213 -37.3829 -33.8485 -33.8412 -33.7888 -13.9236 -13.8505 -13.5142
    14.8693  15.4714  16.9161  17.0087  18.2400  18.9645  19.8625  20.6480
    20.9486  22.6285

          k = 0.0909 0.4545 0.4545 (  3706 PWs)   bands (ev):

   -67.7206 -37.3727 -33.8518 -33.8507 -33.7879 -13.9120 -13.9099 -13.5074
    14.7241  15.3587  16.7931  16.8265  19.0035  19.4768  20.0721  20.2002
    21.1833  22.8718

          k = 0.1818 0.1818 0.1818 (  3707 PWs)   bands (ev):

   -67.7263 -37.4387 -33.8101 -33.8101 -33.7982 -13.6723 -13.6481 -13.6481
    13.4482  16.0031  16.0031  17.5528  17.5528  18.0983  20.5766  20.5766
    20.9730  21.7891

          k = 0.1818 0.1818 0.2727 (  3713 PWs)   bands (ev):

   -67.7249 -37.4252 -33.8222 -33.8080 -33.8018 -13.7790 -13.6465 -13.6403
    14.1110  16.2293  16.3325  17.4047  17.4112  17.7482  20.4309  20.6800
    21.1141  21.3168

          k = 0.1818 0.1818 0.3636 (  3703 PWs)   bands (ev):

   -67.7237 -37.4128 -33.8337 -33.8060 -33.8046 -13.8883 -13.6332 -13.6321
    14.8284  16.3543  16.4800  17.2649  17.4558  17.6672  20.2761  20.4124
    20.5897  21.9433

          k = 0.1818 0.1818 0.4545 (  3727 PWs)   bands (ev):

   -67.7229 -37.4054 -33.8406 -33.8062 -33.8049 -13.9527 -13.6289 -13.6233
    15.4128  16.0534  16.6769  17.1444  17.5946  17.8916  19.9732  20.1833
    20.2951  22.3334

          k = 0.1818 0.2727 0.2727 (  3721 PWs)   bands (ev):

   -67.7236 -37.4101 -33.8262 -33.8175 -33.8042 -13.7723 -13.7532 -13.6320
    14.6740  16.2807  16.7615  17.1903  17.2872  17.3775  20.4740  20.6832
    20.9937  21.8537

          k = 0.1818 0.2727 0.3636 (  3720 PWs)   bands (ev):

   -67.7223 -37.3962 -33.8367 -33.8217 -33.8041 -13.8706 -13.7483 -13.6213
    15.1737  16.1742  16.9086  17.0747  17.3762  17.4943  20.2266  20.5003
    20.8733  22.1613

          k = 0.1818 0.2727 0.4545 (  3714 PWs)   bands (ev):

   -67.7215 -37.3879 -33.8441 -33.8233 -33.8037 -13.9333 -13.7404 -13.6148
    15.4544  15.9973  16.8622  17.0262  17.4894  18.0216  19.8520  20.3144
    20.7698  22.4110

          k = 0.1818 0.3636 0.3636 (  3710 PWs)   bands (ev):

   -67.7210 -37.3808 -33.8410 -33.8354 -33.8029 -13.8591 -13.8483 -13.6108
    15.2996  15.9587  16.8949  17.0296  17.7178  17.7820  20.0842  20.3592
    21.1677  22.3400

          k = 0.1818 0.3636 0.4545 (  3713 PWs)   bands (ev):

   -67.7203 -37.3716 -33.8475 -33.8396 -33.8020 -13.9155 -13.8439 -13.6045
    15.2828  15.8377  16.8365  16.8951  17.9823  18.4722  19.7917  20.1791
    21.2537  22.6105

          k = 0.1818 0.4545 0.4545 (  3704 PWs)   bands (ev):

   -67.7196 -37.3619 -33.8498 -33.8490 -33.8010 -13.9056 -13.9041 -13.5984
    15.1455  15.7358  16.7413  16.7667  18.7223  18.8696  19.6782  19.8626
    21.4678  22.9306

          k = 0.2727 0.2727 0.2727 (  3710 PWs)   bands (ev):

   -67.7222 -37.3946 -33.8239 -33.8239 -33.8164 -13.7582 -13.7453 -13.7453
    15.2727  16.7712  16.7712  16.8506  17.0713  17.0713  20.4914  20.4914
    21.5115  21.5115

          k = 0.2727 0.2727 0.3636 (  3707 PWs)   bands (ev):

   -67.7209 -37.3802 -33.8368 -33.8217 -33.8204 -13.8561 -13.7381 -13.7370
    15.7256  16.4559  16.7547  16.9822  17.0935  17.3301  20.2234  20.2572
    21.3403  22.0634

          k = 0.2727 0.2727 0.4545 (  3709 PWs)   bands (ev):

   -67.7202 -37.3717 -33.8452 -33.8221 -33.8205 -13.9185 -13.7338 -13.7272
    15.8434  16.2443  16.7305  16.9399  17.3304  17.8316  19.7896  20.1148
    21.2799  22.4460

          k = 0.2727 0.3636 0.3636 (  3710 PWs)   bands (ev):

   -67.7197 -37.3656 -33.8385 -33.8355 -33.8201 -13.8454 -13.8405 -13.7274
    15.9461  16.3331  16.8116  16.9426  17.2366  17.4861  20.0319  20.0444
    21.6794  22.2834

          k = 0.2727 0.3636 0.4545 (  3705 PWs)   bands (ev):

   -67.7190 -37.3568 -33.8463 -33.8374 -33.8194 -13.9049 -13.8352 -13.7213
    15.8660  16.2467  16.7685  16.8569  17.5664  17.9487  19.6757  19.9405
    21.7493  22.6477

          k = 0.2727 0.4545 0.4545 (  3711 PWs)   bands (ev):

   -67.7182 -37.3479 -33.8472 -33.8468 -33.8182 -13.8972 -13.8965 -13.7159
    15.7709  16.2084  16.7004  16.7373  18.1372  18.1546  19.4819  19.7713
    21.9497  22.9715

          k = 0.3636 0.3636 0.3636 (  3707 PWs)   bands (ev):

   -67.7185 -37.3515 -33.8362 -33.8362 -33.8354 -13.8333 -13.8333 -13.8325
    16.2836  16.7736  16.7736  16.8013  17.2122  17.2122  19.8453  19.8453
    22.2892  22.2892

          k = 0.3636 0.3636 0.4545 (  3704 PWs)   bands (ev):

   -67.7177 -37.3431 -33.8453 -33.8358 -33.8348 -13.8952 -13.8291 -13.8252
    16.2846  16.4996  16.8204  16.9730  17.2487  17.5998  19.5658  19.7582
    22.3033  22.7491

          k = 0.3636 0.4545 0.4545 (  3721 PWs)   bands (ev):

   -67.7170 -37.3349 -33.8448 -33.8447 -33.8340 -13.8895 -13.8894 -13.8224
    16.4036  16.6010  16.7204  16.8604  17.5371  17.5830  19.4338  19.6146
    22.5518  23.0045

          k = 0.4545 0.4545 0.4545 (  3714 PWs)   bands (ev):

   -67.7163 -37.3272 -33.8435 -33.8433 -33.8433 -13.8853 -13.8853 -13.8845
    16.6698  16.8424  16.8424  17.1546  17.1546  17.2094  19.4225  19.4225
    23.0234  23.0234

     the Fermi energy is    19.1771 ev

!    total energy              =    -448.57723760 Ry
     estimated scf accuracy    <          8.3E-09 Ry
     smearing contrib. (-TS)   =      -0.00003566 Ry
     internal energy E=F+TS    =    -448.57720193 Ry

     The total energy is F=E-TS. E is the sum of the following terms:
     one-electron contribution =    -141.61297407 Ry
     hartree contribution      =      88.37363101 Ry
     xc contribution           =     -53.02179033 Ry
     ewald contribution        =    -266.16070904 Ry
     one-center paw contrib.   =     -76.15535949 Ry

     convergence has been achieved in  36 iterations

     negative rho (up, down):  9.720E-04 0.000E+00

     Forces acting on atoms (cartesian axes, Ry/au):

     atom    1 type  1   force =     0.00000000    0.00000000    0.00000000
     atom    2 type  2   force =     0.00000000    0.00000000    0.00000000

     Total force =     0.000000     Total SCF correction =     0.000000


     Computing stress (Cartesian axis) and pressure


     negative rho (up, down):  9.720E-04 0.000E+00
          total   stress  (Ry/bohr**3)                   (kbar)     P=      203.79
   0.00138533   0.00000000   0.00000000          203.79        0.00        0.00
   0.00000000   0.00138533   0.00000000            0.00      203.79        0.00
   0.00000000   0.00000000   0.00138533            0.00        0.00      203.79


     Writing all to output data dir ./TiFe.save/ :
     XML data file, charge density, pseudopotentials, collected wavefunctions

     init_run     :      1.45s CPU      1.51s WALL (       1 calls)
     electrons    :     36.27s CPU     38.27s WALL (       1 calls)
     forces       :      0.22s CPU      0.25s WALL (       1 calls)
     stress       :      1.30s CPU      1.36s WALL (       1 calls)

     Called by init_run:
     wfcinit      :      0.30s CPU      0.30s WALL (       1 calls)
     potinit      :      0.36s CPU      0.38s WALL (       1 calls)
     hinit0       :      0.64s CPU      0.65s WALL (       1 calls)

     Called by electrons:
     c_bands      :     22.44s CPU     22.95s WALL (      36 calls)
     sum_band     :      7.19s CPU      7.91s WALL (      36 calls)
     v_of_rho     :      0.64s CPU      0.70s WALL (      37 calls)
     newd         :      3.87s CPU      4.53s WALL (      37 calls)
     PAW_pot      :      2.16s CPU      2.22s WALL (      37 calls)
     mix_rho      :      0.07s CPU      0.08s WALL (      36 calls)

     Called by c_bands:
     init_us_2    :      0.59s CPU      0.61s WALL (    4200 calls)
     cegterg      :     21.33s CPU     21.79s WALL (    2016 calls)

     Called by *egterg:
     cdiaghg      :      2.65s CPU      2.70s WALL (    7557 calls)
     h_psi        :     15.92s CPU     16.29s WALL (    7613 calls)
     s_psi        :      0.43s CPU      0.44s WALL (    7613 calls)
     g_psi        :      0.09s CPU      0.09s WALL (    5541 calls)

     Called by h_psi:
     h_psi:calbec :      0.84s CPU      0.85s WALL (    7613 calls)
     vloc_psi     :     14.53s CPU     14.88s WALL (    7613 calls)
     add_vuspsi   :      0.45s CPU      0.46s WALL (    7613 calls)

     General routines
     calbec       :      1.18s CPU      1.20s WALL (   10581 calls)
     fft          :      0.88s CPU      0.95s WALL (     504 calls)
     ffts         :      0.29s CPU      0.29s WALL (      73 calls)
     fftw         :     13.82s CPU     14.13s WALL (  217650 calls)
     interpolate  :      0.31s CPU      0.32s WALL (      37 calls)

     Parallel routines

     PWSCF        :     39.53s CPU     41.84s WALL


   This run was terminated on:   0:38:24  25Oct2025            

=------------------------------------------------------------------------------=
   JOB DONE.
=------------------------------------------------------------------------------=
