
     Program PWSCF v.7.4 starts on 25Oct2025 at  0:49: 0 

     This program is part of the open-source Quantum ESPRESSO suite
     for quantum simulation of materials; please cite
         "P. Giannozzi et al., J. Phys.:Condens. Matter 21 395502 (2009);
         "P. Giannozzi et al., J. Phys.:Condens. Matter 29 465901 (2017);
         "P. Giannozzi et al., J. Chem. Phys. 152 154105 (2020);
          URL http://www.quantum-espresso.org", 
     in publications or presentations arising from this work. More details at
     http://www.quantum-espresso.org/quote

     Parallel version (MPI & OpenMP), running on       8 processor cores
     Number of MPI processes:                 8
     Threads/MPI process:                     1

     MPI processes distributed on     1 nodes
     210770 MiB available memory on the printing compute node when the environment starts

     Reading input from TiFe_21.in

     Current dimensions of program PWSCF are:
     Max number of different atomic species (ntypx) = 10
     Max number of k-points (npk) =  40000
     Max angular momentum in pseudopotentials (lmaxx) =  4
     file Fe.pbe-spn-kjpaw_psl.0.2.1.UPF: wavefunction(s)  3D renormalized

     IMPORTANT: XC functional enforced from input :
     Exchange-correlation= PBE
                           (   1   4   3   4   0   0   0)
     Any further DFT definition will be discarded
     Please, verify this is what you really want

     Message from routine setup:
     using ibrav=0 with symmetry is DISCOURAGED, use correct ibrav instead

     R & G space division:  proc/nbgrp/npool/nimage =       8
     Subspace diagonalization in iterative solution of the eigenvalue problem:
     a serial algorithm will be used


     Parallelization info
     --------------------
     sticks:   dense  smooth     PW     G-vecs:    dense   smooth      PW
     Min         563     163     46                28574     4379     680
     Max         565     164     47                28577     4380     683
     Sum        4509    1305    373               228607    35033    5449

     Using Slab Decomposition



     bravais-lattice index     =            0
     lattice parameter (alat)  =       5.7234  a.u.
     unit-cell volume          =     187.4808 (a.u.)^3
     number of atoms/cell      =            2
     number of atomic types    =            2
     number of electrons       =        28.00
     number of Kohn-Sham states=           18
     kinetic-energy cutoff     =     124.0000  Ry
     charge density cutoff     =    1736.0000  Ry
     scf convergence threshold =      1.0E-08
     mixing beta               =       0.7000
     number of iterations used =            8  plain     mixing
     Exchange-correlation= PBE
                           (   1   4   3   4   0   0   0)

     celldm(1)=   5.723376  celldm(2)=   0.000000  celldm(3)=   0.000000
     celldm(4)=   0.000000  celldm(5)=   0.000000  celldm(6)=   0.000000

     crystal axes: (cart. coord. in units of alat)
               a(1) = (   1.000000   0.000000   0.000000 )  
               a(2) = (   0.000000   1.000000   0.000000 )  
               a(3) = (   0.000000   0.000000   1.000000 )  

     reciprocal axes: (cart. coord. in units 2 pi/alat)
               b(1) = (  1.000000  0.000000  0.000000 )  
               b(2) = (  0.000000  1.000000  0.000000 )  
               b(3) = (  0.000000  0.000000  1.000000 )  


     PseudoPot. # 1 for Fe read from file:
     ../pseudos/Fe.pbe-spn-kjpaw_psl.0.2.1.UPF
     MD5 check sum: e86618425769142926afa95317d90200
     Pseudo is Projector augmented-wave + core cor, Zval = 16.0
     Generated using "atomic" code by A. Dal Corso  v.5.0.99 svn rev. 10869
     Shape of augmentation charge: PSQ
     Using radial grid of 1191 points,  6 beta functions with: 
                l(1) =   0
                l(2) =   0
                l(3) =   1
                l(4) =   1
                l(5) =   2
                l(6) =   2
     Q(r) pseudized with 0 coefficients 


     PseudoPot. # 2 for Ti read from file:
     ../pseudos/ti_pbe_v1.4.uspp.F.UPF
     MD5 check sum: 88a00a6731bd790ddea75d31a80cb452
     Pseudo is Ultrasoft + core correction, Zval = 12.0
     Generated by new atomic code, or converted to UPF format
     Using radial grid of  851 points,  6 beta functions with: 
                l(1) =   0
                l(2) =   0
                l(3) =   1
                l(4) =   1
                l(5) =   2
                l(6) =   2
     Q(r) pseudized with  6 coefficients,  rinner =    1.000   1.000   1.000
                                                       1.000   1.000

     atomic species   valence    mass     pseudopotential
     Fe               16.00    55.84500     Fe( 1.00)
     Ti               12.00    47.86700     Ti( 1.00)

     48 Sym. Ops., with inversion, found



   Cartesian axes

     site n.     atom                  positions (alat units)
         1        Fe     tau(   1) = (   0.5000000   0.5000000   0.5000000  )
         2        Ti     tau(   2) = (   0.0000000   0.0000000   0.0000000  )

     number of k points=    56  Marzari-Vanderbilt smearing, width (Ry)=  0.0050
                       cart. coord. in units 2pi/alat
        k(    1) = (   0.0000000   0.0000000   0.0000000), wk =   0.0015026
        k(    2) = (   0.0000000   0.0000000   0.0909091), wk =   0.0090158
        k(    3) = (   0.0000000   0.0000000   0.1818182), wk =   0.0090158
        k(    4) = (   0.0000000   0.0000000   0.2727273), wk =   0.0090158
        k(    5) = (   0.0000000   0.0000000   0.3636364), wk =   0.0090158
        k(    6) = (   0.0000000   0.0000000   0.4545455), wk =   0.0090158
        k(    7) = (   0.0000000   0.0909091   0.0909091), wk =   0.0180316
        k(    8) = (   0.0000000   0.0909091   0.1818182), wk =   0.0360631
        k(    9) = (   0.0000000   0.0909091   0.2727273), wk =   0.0360631
        k(   10) = (   0.0000000   0.0909091   0.3636364), wk =   0.0360631
        k(   11) = (   0.0000000   0.0909091   0.4545455), wk =   0.0360631
        k(   12) = (   0.0000000   0.1818182   0.1818182), wk =   0.0180316
        k(   13) = (   0.0000000   0.1818182   0.2727273), wk =   0.0360631
        k(   14) = (   0.0000000   0.1818182   0.3636364), wk =   0.0360631
        k(   15) = (   0.0000000   0.1818182   0.4545455), wk =   0.0360631
        k(   16) = (   0.0000000   0.2727273   0.2727273), wk =   0.0180316
        k(   17) = (   0.0000000   0.2727273   0.3636364), wk =   0.0360631
        k(   18) = (   0.0000000   0.2727273   0.4545455), wk =   0.0360631
        k(   19) = (   0.0000000   0.3636364   0.3636364), wk =   0.0180316
        k(   20) = (   0.0000000   0.3636364   0.4545455), wk =   0.0360631
        k(   21) = (   0.0000000   0.4545455   0.4545455), wk =   0.0180316
        k(   22) = (   0.0909091   0.0909091   0.0909091), wk =   0.0120210
        k(   23) = (   0.0909091   0.0909091   0.1818182), wk =   0.0360631
        k(   24) = (   0.0909091   0.0909091   0.2727273), wk =   0.0360631
        k(   25) = (   0.0909091   0.0909091   0.3636364), wk =   0.0360631
        k(   26) = (   0.0909091   0.0909091   0.4545455), wk =   0.0360631
        k(   27) = (   0.0909091   0.1818182   0.1818182), wk =   0.0360631
        k(   28) = (   0.0909091   0.1818182   0.2727273), wk =   0.0721262
        k(   29) = (   0.0909091   0.1818182   0.3636364), wk =   0.0721262
        k(   30) = (   0.0909091   0.1818182   0.4545455), wk =   0.0721262
        k(   31) = (   0.0909091   0.2727273   0.2727273), wk =   0.0360631
        k(   32) = (   0.0909091   0.2727273   0.3636364), wk =   0.0721262
        k(   33) = (   0.0909091   0.2727273   0.4545455), wk =   0.0721262
        k(   34) = (   0.0909091   0.3636364   0.3636364), wk =   0.0360631
        k(   35) = (   0.0909091   0.3636364   0.4545455), wk =   0.0721262
        k(   36) = (   0.0909091   0.4545455   0.4545455), wk =   0.0360631
        k(   37) = (   0.1818182   0.1818182   0.1818182), wk =   0.0120210
        k(   38) = (   0.1818182   0.1818182   0.2727273), wk =   0.0360631
        k(   39) = (   0.1818182   0.1818182   0.3636364), wk =   0.0360631
        k(   40) = (   0.1818182   0.1818182   0.4545455), wk =   0.0360631
        k(   41) = (   0.1818182   0.2727273   0.2727273), wk =   0.0360631
        k(   42) = (   0.1818182   0.2727273   0.3636364), wk =   0.0721262
        k(   43) = (   0.1818182   0.2727273   0.4545455), wk =   0.0721262
        k(   44) = (   0.1818182   0.3636364   0.3636364), wk =   0.0360631
        k(   45) = (   0.1818182   0.3636364   0.4545455), wk =   0.0721262
        k(   46) = (   0.1818182   0.4545455   0.4545455), wk =   0.0360631
        k(   47) = (   0.2727273   0.2727273   0.2727273), wk =   0.0120210
        k(   48) = (   0.2727273   0.2727273   0.3636364), wk =   0.0360631
        k(   49) = (   0.2727273   0.2727273   0.4545455), wk =   0.0360631
        k(   50) = (   0.2727273   0.3636364   0.3636364), wk =   0.0360631
        k(   51) = (   0.2727273   0.3636364   0.4545455), wk =   0.0721262
        k(   52) = (   0.2727273   0.4545455   0.4545455), wk =   0.0360631
        k(   53) = (   0.3636364   0.3636364   0.3636364), wk =   0.0120210
        k(   54) = (   0.3636364   0.3636364   0.4545455), wk =   0.0360631
        k(   55) = (   0.3636364   0.4545455   0.4545455), wk =   0.0360631
        k(   56) = (   0.4545455   0.4545455   0.4545455), wk =   0.0120210

     Dense  grid:   228607 G-vectors     FFT dimensions: (  75,  75,  75)

     Smooth grid:    35033 G-vectors     FFT dimensions: (  45,  45,  45)

     Estimated max dynamical RAM per process >     119.61 MB

     Estimated total dynamical RAM >     956.86 MB

     Check: negative core charge=   -0.000001

     Initial potential from superposition of free atoms

     starting charge      26.9995, renormalised to      28.0000

     negative rho (up, down):  1.383E-03 0.000E+00
     Starting wfcs are   23 randomized atomic wfcs
     Checking if some PAW data can be deallocated... 

     total cpu time spent up to now is        1.3 secs

     per-process dynamical memory:   136.4 Mb

     Self-consistent Calculation

     iteration #  1     ecut=   124.00 Ry     beta= 0.70
     Davidson diagonalization with overlap
     ethr =  1.00E-02,  avg # of iterations =  2.1

     negative rho (up, down):  1.226E-04 0.000E+00

     total cpu time spent up to now is        2.8 secs

     total energy              =    -433.16876353 Ry
     estimated scf accuracy    <      19.54025281 Ry

     iteration #  2     ecut=   124.00 Ry     beta= 0.70
     Davidson diagonalization with overlap
     ethr =  1.00E-02,  avg # of iterations =  6.1

     negative rho (up, down):  1.509E-05 0.000E+00

     total cpu time spent up to now is        5.1 secs

     total energy              =    -448.00141611 Ry
     estimated scf accuracy    <      74.76571675 Ry

     iteration #  3     ecut=   124.00 Ry     beta= 0.70
     Davidson diagonalization with overlap
     ethr =  1.00E-02,  avg # of iterations =  3.3

     negative rho (up, down):  1.568E-04 0.000E+00

     total cpu time spent up to now is        6.8 secs

     total energy              =    -448.96902298 Ry
     estimated scf accuracy    <      18.34009531 Ry

     iteration #  4     ecut=   124.00 Ry     beta= 0.70
     Davidson diagonalization with overlap
     ethr =  1.00E-02,  avg # of iterations =  2.1

     negative rho (up, down):  2.335E-04 0.000E+00

     total cpu time spent up to now is        8.3 secs

     total energy              =    -449.15789188 Ry
     estimated scf accuracy    <       6.60803247 Ry

     iteration #  5     ecut=   124.00 Ry     beta= 0.70
     Davidson diagonalization with overlap
     ethr =  1.00E-02,  avg # of iterations =  1.1

     negative rho (up, down):  5.071E-04 0.000E+00

     total cpu time spent up to now is        9.5 secs

     total energy              =    -448.87431619 Ry
     estimated scf accuracy    <       4.92991456 Ry

     iteration #  6     ecut=   124.00 Ry     beta= 0.70
     Davidson diagonalization with overlap
     ethr =  1.00E-02,  avg # of iterations =  1.1

     negative rho (up, down):  1.184E-03 0.000E+00

     total cpu time spent up to now is       10.8 secs

     total energy              =    -447.78919828 Ry
     estimated scf accuracy    <       3.97073541 Ry

     iteration #  7     ecut=   124.00 Ry     beta= 0.70
     Davidson diagonalization with overlap
     ethr =  1.00E-02,  avg # of iterations =  3.9

     negative rho (up, down):  8.903E-04 0.000E+00

     total cpu time spent up to now is       12.2 secs

     total energy              =    -448.36716442 Ry
     estimated scf accuracy    <      11.52399683 Ry

     iteration #  8     ecut=   124.00 Ry     beta= 0.70
     Davidson diagonalization with overlap
     ethr =  1.00E-02,  avg # of iterations =  1.6

     negative rho (up, down):  8.741E-04 0.000E+00

     total cpu time spent up to now is       13.5 secs

     total energy              =    -448.60978808 Ry
     estimated scf accuracy    <       1.38513041 Ry

     iteration #  9     ecut=   124.00 Ry     beta= 0.70
     Davidson diagonalization with overlap
     ethr =  4.95E-03,  avg # of iterations =  1.1

     negative rho (up, down):  9.312E-04 0.000E+00

     total cpu time spent up to now is       14.7 secs

     total energy              =    -448.61472440 Ry
     estimated scf accuracy    <       1.16713308 Ry

     iteration # 10     ecut=   124.00 Ry     beta= 0.70
     Davidson diagonalization with overlap
     ethr =  4.17E-03,  avg # of iterations =  1.0

     negative rho (up, down):  1.221E-03 0.000E+00

     total cpu time spent up to now is       16.0 secs

     total energy              =    -448.42123601 Ry
     estimated scf accuracy    <       1.01541854 Ry

     iteration # 11     ecut=   124.00 Ry     beta= 0.70
     Davidson diagonalization with overlap
     ethr =  3.63E-03,  avg # of iterations =  3.1

     negative rho (up, down):  1.173E-03 0.000E+00

     total cpu time spent up to now is       17.4 secs

     total energy              =    -448.52011657 Ry
     estimated scf accuracy    <       1.17240055 Ry

     iteration # 12     ecut=   124.00 Ry     beta= 0.70
     Davidson diagonalization with overlap
     ethr =  3.63E-03,  avg # of iterations =  1.1

     negative rho (up, down):  1.202E-03 0.000E+00

     total cpu time spent up to now is       18.6 secs

     total energy              =    -448.58669263 Ry
     estimated scf accuracy    <       0.02211804 Ry

     iteration # 13     ecut=   124.00 Ry     beta= 0.70
     Davidson diagonalization with overlap
     ethr =  7.90E-05,  avg # of iterations =  5.1

     negative rho (up, down):  1.204E-03 0.000E+00

     total cpu time spent up to now is       20.2 secs

     total energy              =    -448.59608706 Ry
     estimated scf accuracy    <       0.16647432 Ry

     iteration # 14     ecut=   124.00 Ry     beta= 0.70
     Davidson diagonalization with overlap
     ethr =  7.90E-05,  avg # of iterations =  1.0

     negative rho (up, down):  1.006E-03 0.000E+00

     total cpu time spent up to now is       21.4 secs

     total energy              =    -448.56055596 Ry
     estimated scf accuracy    <       0.17410101 Ry

     iteration # 15     ecut=   124.00 Ry     beta= 0.70
     Davidson diagonalization with overlap
     ethr =  7.90E-05,  avg # of iterations =  4.7

     negative rho (up, down):  1.001E-03 0.000E+00

     total cpu time spent up to now is       23.1 secs

     total energy              =    -448.58125898 Ry
     estimated scf accuracy    <       0.08860607 Ry

     iteration # 16     ecut=   124.00 Ry     beta= 0.70
     Davidson diagonalization with overlap
     ethr =  7.90E-05,  avg # of iterations =  1.0

     negative rho (up, down):  9.344E-04 0.000E+00

     total cpu time spent up to now is       24.3 secs

     total energy              =    -448.58061547 Ry
     estimated scf accuracy    <       0.02620185 Ry

     iteration # 17     ecut=   124.00 Ry     beta= 0.70
     Davidson diagonalization with overlap
     ethr =  7.90E-05,  avg # of iterations =  1.1

     negative rho (up, down):  8.942E-04 0.000E+00

     total cpu time spent up to now is       25.5 secs

     total energy              =    -448.58201912 Ry
     estimated scf accuracy    <       0.00898735 Ry

     iteration # 18     ecut=   124.00 Ry     beta= 0.70
     Davidson diagonalization with overlap
     ethr =  3.21E-05,  avg # of iterations =  1.2

     negative rho (up, down):  8.804E-04 0.000E+00

     total cpu time spent up to now is       26.8 secs

     total energy              =    -448.58200776 Ry
     estimated scf accuracy    <       0.01546991 Ry

     iteration # 19     ecut=   124.00 Ry     beta= 0.70
     Davidson diagonalization with overlap
     ethr =  3.21E-05,  avg # of iterations =  1.0

     negative rho (up, down):  9.024E-04 0.000E+00

     total cpu time spent up to now is       28.0 secs

     total energy              =    -448.58139175 Ry
     estimated scf accuracy    <       0.01172794 Ry

     iteration # 20     ecut=   124.00 Ry     beta= 0.70
     Davidson diagonalization with overlap
     ethr =  3.21E-05,  avg # of iterations =  1.0

     negative rho (up, down):  8.744E-04 0.000E+00

     total cpu time spent up to now is       29.3 secs

     total energy              =    -448.58213397 Ry
     estimated scf accuracy    <       0.00590714 Ry

     iteration # 21     ecut=   124.00 Ry     beta= 0.70
     Davidson diagonalization with overlap
     ethr =  2.11E-05,  avg # of iterations =  1.2

     negative rho (up, down):  9.578E-04 0.000E+00

     total cpu time spent up to now is       30.5 secs

     total energy              =    -448.57979061 Ry
     estimated scf accuracy    <       0.01265290 Ry

     iteration # 22     ecut=   124.00 Ry     beta= 0.70
     Davidson diagonalization with overlap
     ethr =  2.11E-05,  avg # of iterations =  2.9

     negative rho (up, down):  9.987E-04 0.000E+00

     total cpu time spent up to now is       31.9 secs

     total energy              =    -448.58080989 Ry
     estimated scf accuracy    <       0.00024732 Ry

     iteration # 23     ecut=   124.00 Ry     beta= 0.70
     Davidson diagonalization with overlap
     ethr =  8.83E-07,  avg # of iterations =  4.5

     negative rho (up, down):  9.669E-04 0.000E+00

     total cpu time spent up to now is       33.7 secs

     total energy              =    -448.58078642 Ry
     estimated scf accuracy    <       0.00084410 Ry

     iteration # 24     ecut=   124.00 Ry     beta= 0.70
     Davidson diagonalization with overlap
     ethr =  8.83E-07,  avg # of iterations =  4.1

     negative rho (up, down):  9.741E-04 0.000E+00

     total cpu time spent up to now is       35.3 secs

     total energy              =    -448.58090931 Ry
     estimated scf accuracy    <       0.00004052 Ry

     iteration # 25     ecut=   124.00 Ry     beta= 0.70
     Davidson diagonalization with overlap
     ethr =  1.45E-07,  avg # of iterations =  2.3

     negative rho (up, down):  9.745E-04 0.000E+00

     total cpu time spent up to now is       36.7 secs

     total energy              =    -448.58091656 Ry
     estimated scf accuracy    <       0.00000418 Ry

     iteration # 26     ecut=   124.00 Ry     beta= 0.70
     Davidson diagonalization with overlap
     ethr =  1.49E-08,  avg # of iterations =  3.6

     negative rho (up, down):  9.742E-04 0.000E+00

     total cpu time spent up to now is       38.1 secs

     total energy              =    -448.58091725 Ry
     estimated scf accuracy    <       0.00000010 Ry

     iteration # 27     ecut=   124.00 Ry     beta= 0.70
     Davidson diagonalization with overlap
     ethr =  3.74E-10,  avg # of iterations =  4.8

     negative rho (up, down):  9.741E-04 0.000E+00

     total cpu time spent up to now is       39.8 secs

     total energy              =    -448.58091732 Ry
     estimated scf accuracy    <       0.00000002 Ry

     iteration # 28     ecut=   124.00 Ry     beta= 0.70
     Davidson diagonalization with overlap
     ethr =  8.70E-11,  avg # of iterations =  2.9

     negative rho (up, down):  9.741E-04 0.000E+00

     total cpu time spent up to now is       41.2 secs

     End of self-consistent calculation

          k = 0.0000 0.0000 0.0000 (  4385 PWs)   bands (ev):

   -70.9277 -41.1094 -36.9860 -36.9860 -36.9860 -17.2249 -17.2249 -17.2249
     8.6750  12.5425  12.5425  14.9880  14.9880  14.9880  17.0847  17.0847
    18.7944  18.7944

          k = 0.0000 0.0000 0.0909 (  4385 PWs)   bands (ev):

   -70.9275 -41.1078 -36.9879 -36.9858 -36.9858 -17.2460 -17.2235 -17.2235
     8.8342  12.6159  12.6175  14.9764  14.9764  15.0216  16.9945  17.1178
    18.5764  18.5764

          k = 0.0000 0.0000 0.1818 (  4372 PWs)   bands (ev):

   -70.9271 -41.1034 -36.9931 -36.9851 -36.9851 -17.3022 -17.2199 -17.2199
     9.2983  12.8027  12.8370  14.9491  14.9491  15.1156  16.7332  17.1894
    18.0660  18.0660

          k = 0.0000 0.0000 0.2727 (  4344 PWs)   bands (ev):

   -70.9265 -41.0978 -36.9999 -36.9842 -36.9842 -17.3752 -17.2151 -17.2151
    10.0253  12.9998  13.1811  14.9242  14.9242  15.2488  16.3313  17.1989
    17.4989  17.4989

          k = 0.0000 0.0000 0.3636 (  4372 PWs)   bands (ev):

   -70.9259 -41.0926 -37.0061 -36.9834 -36.9834 -17.4416 -17.2107 -17.2107
    10.9365  13.0305  13.6048  14.9158  14.9158  15.3841  15.8519  16.9949
    17.0348  17.0348

          k = 0.0000 0.0000 0.4545 (  4380 PWs)   bands (ev):

   -70.9256 -41.0895 -37.0098 -36.9829 -36.9829 -17.4808 -17.2081 -17.2081
    11.8837  12.6916  13.9806  14.9200  14.9200  15.4417  15.4719  16.6950
    16.7731  16.7731

          k = 0.0000 0.0909 0.0909 (  4377 PWs)   bands (ev):

   -70.9274 -41.1061 -36.9884 -36.9871 -36.9855 -17.2464 -17.2425 -17.2221
     8.9907  12.6853  12.6938  14.9055  14.9578  15.1043  16.9811  17.0927
    18.3373  18.3571

          k = 0.0000 0.0909 0.1818 (  4382 PWs)   bands (ev):

   -70.9269 -41.1016 -36.9933 -36.9870 -36.9848 -17.3004 -17.2402 -17.2184
     9.4461  12.8684  12.9069  14.8350  14.9117  15.2061  16.7799  17.1550
    17.8573  17.8913

          k = 0.0000 0.0909 0.2727 (  4361 PWs)   bands (ev):

   -70.9263 -41.0957 -37.0001 -36.9864 -36.9839 -17.3727 -17.2349 -17.2134
    10.1567  13.0633  13.2307  14.7951  14.8589  15.2805  16.4381  17.1126
    17.4126  17.4523

          k = 0.0000 0.0909 0.3636 (  4358 PWs)   bands (ev):

   -70.9258 -41.0903 -37.0065 -36.9858 -36.9831 -17.4386 -17.2300 -17.2089
    11.0414  13.0839  13.6249  14.7961  14.8118  15.2885  16.0438  16.7469
    17.1571  17.2480

          k = 0.0000 0.0909 0.4545 (  4365 PWs)   bands (ev):

   -70.9254 -41.0871 -37.0102 -36.9855 -36.9827 -17.4774 -17.2271 -17.2062
    11.9505  12.7448  13.9710  14.7532  14.8233  15.2460  15.7556  16.4760
    17.0364  17.0642

          k = 0.0000 0.1818 0.1818 (  4372 PWs)   bands (ev):

   -70.9265 -41.0967 -36.9947 -36.9912 -36.9842 -17.3004 -17.2895 -17.2143
     9.8729  12.9987  13.1386  14.6837  14.8242  15.2707  16.8223  17.1207
    17.3974  17.6092

          k = 0.0000 0.1818 0.2727 (  4360 PWs)   bands (ev):

   -70.9259 -41.0902 -37.0008 -36.9923 -36.9833 -17.3662 -17.2875 -17.2089
    10.5279  13.1249  13.4639  14.5772  14.7373  15.2045  16.6764  16.8953
    17.2598  17.4509

          k = 0.0000 0.1818 0.3636 (  4351 PWs)   bands (ev):

   -70.9253 -41.0843 -37.0074 -36.9924 -36.9825 -17.4304 -17.2815 -17.2040
    11.3180  13.0997  13.8076  14.5437  14.7021  15.0241  16.4132  16.5857
    17.3520  17.4639

          k = 0.0000 0.1818 0.4545 (  4364 PWs)   bands (ev):

   -70.9250 -41.0808 -37.0113 -36.9924 -36.9821 -17.4683 -17.2778 -17.2010
    12.0836  12.8001  14.0667  14.5836  14.7170  14.8387  16.2572  16.3649
    17.3518  17.5448

          k = 0.0000 0.2727 0.2727 (  4364 PWs)   bands (ev):

   -70.9253 -41.0830 -37.0029 -36.9988 -36.9825 -17.3632 -17.3504 -17.2030
    11.0683  13.0949  13.8481  14.3952  14.6792  14.9714  16.6939  16.8813
    17.1623  17.6000

          k = 0.0000 0.2727 0.3636 (  4365 PWs)   bands (ev):

   -70.9247 -41.0764 -37.0087 -37.0010 -36.9818 -17.4198 -17.3482 -17.1975
    11.6574  12.9544  14.2341  14.2981  14.6894  14.7898  16.5239  16.8576
    17.3024  17.8385

          k = 0.0000 0.2727 0.4545 (  4368 PWs)   bands (ev):

   -70.9244 -41.0724 -37.0128 -37.0015 -36.9813 -17.4565 -17.3436 -17.1942
    12.1382  12.7264  14.3069  14.4458  14.4619  15.0776  16.2941  16.8241
    17.4672  18.0528

          k = 0.0000 0.3636 0.3636 (  4384 PWs)   bands (ev):

   -70.9242 -41.0691 -37.0106 -37.0081 -36.9811 -17.4132 -17.4058 -17.1915
    11.9311  12.7546  14.1342  14.3858  14.7627  15.1106  16.6222  17.1450
    17.1756  18.1913

          k = 0.0000 0.3636 0.4545 (  4385 PWs)   bands (ev):

   -70.9238 -41.0647 -37.0142 -37.0099 -36.9806 -17.4456 -17.4036 -17.1880
    12.0823  12.6051  14.0877  14.1765  15.0806  15.6839  16.3977  17.2105
    17.3311  18.4551

          k = 0.0000 0.4545 0.4545 (  4390 PWs)   bands (ev):

   -70.9235 -41.0601 -37.0151 -37.0147 -36.9802 -17.4395 -17.4385 -17.1843
    12.0168  12.5282  13.9815  14.0111  15.7172  16.1134  16.7107  16.8730
    17.4532  18.6920

          k = 0.0909 0.0909 0.0909 (  4367 PWs)   bands (ev):

   -70.9272 -41.1044 -36.9881 -36.9881 -36.9864 -17.2464 -17.2411 -17.2411
     9.1448  12.7613  12.7613  14.8853  14.8853  15.1696  17.0250  17.0250
    17.9711  18.5580

          k = 0.0909 0.0909 0.1818 (  4372 PWs)   bands (ev):

   -70.9267 -41.0997 -36.9933 -36.9874 -36.9863 -17.2986 -17.2397 -17.2374
     9.5925  12.9533  12.9574  14.7886  14.8318  15.2390  16.8298  17.1227
    17.5544  18.0444

          k = 0.0909 0.0909 0.2727 (  4365 PWs)   bands (ev):

   -70.9261 -41.0937 -37.0003 -36.9865 -36.9860 -17.3703 -17.2338 -17.2325
    10.2886  13.1487  13.2607  14.7345  14.7588  15.2349  16.5341  17.0665
    17.3756  17.4843

          k = 0.0909 0.0909 0.3636 (  4365 PWs)   bands (ev):

   -70.9256 -41.0881 -37.0068 -36.9857 -36.9856 -17.4356 -17.2283 -17.2281
    11.1498  13.1577  13.6252  14.6694  14.7563  15.1641  16.2013  16.7951
    17.0384  17.4462

          k = 0.0909 0.0909 0.4545 (  4370 PWs)   bands (ev):

   -70.9253 -41.0848 -37.0106 -36.9854 -36.9852 -17.4742 -17.2254 -17.2250
    12.0253  12.8120  13.9436  14.5594  14.8500  15.0896  15.9596  16.5232
    16.7951  17.5286

          k = 0.0909 0.1818 0.1818 (  4363 PWs)   bands (ev):

   -70.9263 -41.0947 -36.9944 -36.9914 -36.9863 -17.2981 -17.2880 -17.2342
    10.0151  13.0873  13.1839  14.6506  14.7334  15.2034  16.8816  17.0961
    17.3010  17.7955

          k = 0.0909 0.1818 0.2727 (  4359 PWs)   bands (ev):

   -70.9257 -41.0881 -37.0008 -36.9922 -36.9857 -17.3639 -17.2857 -17.2285
    10.6616  13.2297  13.4798  14.5377  14.6404  15.0460  16.7519  16.9997
    17.2964  17.4972

          k = 0.0909 0.1818 0.3636 (  4370 PWs)   bands (ev):

   -70.9251 -41.0821 -37.0075 -36.9922 -36.9850 -17.4278 -17.2796 -17.2232
    11.4367  13.2100  13.7700  14.4685  14.6259  14.8888  16.5508  16.6813
    17.1635  17.7165

          k = 0.0909 0.1818 0.4545 (  4369 PWs)   bands (ev):

   -70.9248 -41.0785 -37.0115 -36.9922 -36.9847 -17.4655 -17.2760 -17.2201
    12.1809  12.8995  13.9917  14.3984  14.7198  14.8235  16.3766  16.4361
    16.9807  18.0488

          k = 0.0909 0.2727 0.2727 (  4375 PWs)   bands (ev):

   -70.9251 -41.0809 -37.0026 -36.9989 -36.9850 -17.3606 -17.3489 -17.2224
    11.2032  13.2042  13.8570  14.3598  14.5714  14.7834  16.7971  17.0212
    17.1451  17.7107

          k = 0.0909 0.2727 0.3636 (  4372 PWs)   bands (ev):

   -70.9245 -41.0742 -37.0086 -37.0008 -36.9843 -17.4175 -17.3464 -17.2168
    11.7886  13.0657  14.1837  14.2582  14.5803  14.6800  16.5958  16.9356
    17.2066  18.0679

          k = 0.0909 0.2727 0.4545 (  4364 PWs)   bands (ev):

   -70.9242 -41.0703 -37.0128 -37.0013 -36.9839 -17.4541 -17.3419 -17.2134
    12.2572  12.8401  14.2334  14.2633  14.5135  15.0053  16.3249  16.9157
    17.1337  18.4930

          k = 0.0909 0.3636 0.3636 (  4375 PWs)   bands (ev):

   -70.9240 -41.0670 -37.0102 -37.0080 -36.9836 -17.4110 -17.4043 -17.2108
    12.0647  12.8651  14.1057  14.3053  14.7237  14.9612  16.5983  17.0341
    17.2659  18.4596

          k = 0.0909 0.3636 0.4545 (  4370 PWs)   bands (ev):

   -70.9237 -41.0627 -37.0139 -37.0096 -36.9831 -17.4437 -17.4019 -17.2073
    12.2076  12.7198  14.0569  14.1292  15.0090  15.5278  16.3661  16.9956
    17.3454  18.6728

          k = 0.0909 0.4545 0.4545 (  4384 PWs)   bands (ev):

   -70.9233 -41.0582 -37.0148 -37.0144 -36.9827 -17.4379 -17.4370 -17.2036
    12.1420  12.6425  13.9596  13.9852  15.6590  15.9690  16.5138  16.5832
    17.5240  18.8734

          k = 0.1818 0.1818 0.1818 (  4374 PWs)   bands (ev):

   -70.9258 -41.0895 -36.9937 -36.9937 -36.9902 -17.2952 -17.2841 -17.2841
    10.4231  13.3123  13.3123  14.5618  14.5618  14.9694  17.0240  17.0240
    17.3447  18.0076

          k = 0.1818 0.1818 0.2727 (  4368 PWs)   bands (ev):

   -70.9252 -41.0826 -37.0008 -36.9927 -36.9912 -17.3577 -17.2826 -17.2791
    11.0389  13.5013  13.5247  14.4387  14.4414  14.6960  16.9150  17.0713
    17.4712  17.6096

          k = 0.1818 0.1818 0.3636 (  4368 PWs)   bands (ev):

   -70.9247 -41.0762 -37.0078 -36.9918 -36.9916 -17.4207 -17.2751 -17.2744
    11.7565  13.4499  13.7134  14.3120  14.4593  14.6358  16.8014  16.8145
    17.0527  18.1002

          k = 0.1818 0.1818 0.4545 (  4363 PWs)   bands (ev):

   -70.9244 -41.0724 -37.0121 -36.9918 -36.9913 -17.4579 -17.2716 -17.2705
    12.4113  13.0980  13.8903  14.1947  14.5522  14.7764  16.4370  16.7422
    16.8099  18.4395

          k = 0.1818 0.2727 0.2727 (  4377 PWs)   bands (ev):

   -70.9246 -41.0753 -37.0019 -36.9992 -36.9914 -17.3536 -17.3449 -17.2743
    11.5836  13.5023  13.8781  14.2677  14.3297  14.3941  16.9142  17.0728
    17.3932  18.0253

          k = 0.1818 0.2727 0.3636 (  4369 PWs)   bands (ev):

   -70.9241 -41.0685 -37.0083 -37.0004 -36.9910 -17.4114 -17.3415 -17.2683
    12.1551  13.3586  14.0195  14.1589  14.3533  14.4645  16.6950  16.9166
    17.2994  18.3143

          k = 0.1818 0.2727 0.4545 (  4379 PWs)   bands (ev):

   -70.9238 -41.0645 -37.0128 -37.0006 -36.9907 -17.4479 -17.3373 -17.2646
    12.5803  13.1246  14.0165  14.0968  14.4149  14.8316  16.3575  16.7794
    17.2213  18.5041

          k = 0.1818 0.3636 0.3636 (  4369 PWs)   bands (ev):

   -70.9235 -41.0614 -37.0094 -37.0078 -36.9903 -17.4051 -17.4002 -17.2623
    12.4468  13.1552  14.0337  14.1286  14.5982  14.6047  16.5832  16.7786
    17.5296  18.4596

          k = 0.1818 0.3636 0.4545 (  4373 PWs)   bands (ev):

   -70.9232 -41.0572 -37.0134 -37.0088 -36.9899 -17.4387 -17.3975 -17.2587
    12.5643  13.0217  13.9829  14.0220  14.7779  15.1550  16.3141  16.6468
    17.5955  18.6697

          k = 0.1818 0.4545 0.4545 (  4380 PWs)   bands (ev):

   -70.9229 -41.0528 -37.0139 -37.0137 -36.9894 -17.4335 -17.4328 -17.2552
    12.5010  12.9479  13.9063  13.9240  15.3941  15.4646  16.2135  16.3835
    17.7570  18.9278

          k = 0.2727 0.2727 0.2727 (  4377 PWs)   bands (ev):

   -70.9240 -41.0678 -37.0008 -37.0008 -36.9988 -17.3465 -17.3396 -17.3396
    12.1258  13.8985  13.8985  13.9663  14.1522  14.1522  16.9153  16.9153
    17.8080  17.8080

          k = 0.2727 0.2727 0.3636 (  4372 PWs)   bands (ev):

   -70.9235 -41.0610 -37.0081 -36.9999 -36.9997 -17.4034 -17.3355 -17.3347
    12.6519  13.6023  13.9092  14.0497  14.1342  14.3265  16.6769  16.7321
    17.6753  18.2419

          k = 0.2727 0.2727 0.4545 (  4383 PWs)   bands (ev):

   -70.9232 -41.0570 -37.0127 -36.9999 -36.9993 -17.4396 -17.3318 -17.3305
    12.9560  13.3646  13.9133  13.9878  14.2592  14.6943  16.3082  16.6218
    17.6282  18.5362

          k = 0.2727 0.3636 0.3636 (  4390 PWs)   bands (ev):

   -70.9230 -41.0541 -37.0083 -37.0075 -36.9992 -17.3974 -17.3948 -17.3291
    13.0134  13.4706  13.9521  14.0134  14.1989  14.4169  16.5357  16.5404
    17.9405  18.4191

          k = 0.2727 0.3636 0.4545 (  4387 PWs)   bands (ev):

   -70.9226 -41.0500 -37.0127 -37.0078 -36.9987 -17.4321 -17.3918 -17.3256
    13.0794  13.3762  13.9142  13.9474  14.4268  14.7659  16.2273  16.4668
    17.9947  18.7025

          k = 0.2727 0.4545 0.4545 (  4395 PWs)   bands (ev):

   -70.9223 -41.0459 -37.0127 -37.0126 -36.9982 -17.4277 -17.4274 -17.3222
    13.0370  13.3377  13.8536  13.8737  14.8940  14.9288  16.0805  16.3159
    18.1474  18.9606

          k = 0.3636 0.3636 0.3636 (  4392 PWs)   bands (ev):

   -70.9224 -41.0474 -37.0073 -37.0073 -37.0072 -17.3906 -17.3898 -17.3898
    13.4868  13.6548  13.9004  13.9004  14.2069  14.2069  16.3832  16.3832
    18.4245  18.4245

          k = 0.3636 0.3636 0.4545 (  4390 PWs)   bands (ev):

   -70.9221 -41.0434 -37.0120 -37.0071 -37.0067 -17.4260 -17.3868 -17.3861
    13.4900  13.6118  13.9055  14.0423  14.1365  14.5079  16.1479  16.3162
    18.4356  18.7839

          k = 0.3636 0.4545 0.4545 (  4385 PWs)   bands (ev):

   -70.9218 -41.0394 -37.0117 -37.0117 -37.0063 -17.4224 -17.4224 -17.3833
    13.5866  13.6839  13.8406  13.9190  14.4360  14.4903  16.0461  16.1933
    18.6289  18.9859

          k = 0.4545 0.4545 0.4545 (  4344 PWs)   bands (ev):

   -70.9215 -41.0356 -37.0111 -37.0110 -37.0110 -17.4194 -17.4194 -17.4192
    13.7775  13.8900  13.8900  14.1816  14.1917  14.1917  16.0377  16.0377
    19.0002  19.0002

     the Fermi energy is    15.8704 ev

!    total energy              =    -448.58091732 Ry
     estimated scf accuracy    <          6.7E-10 Ry
     smearing contrib. (-TS)   =       0.00002450 Ry
     internal energy E=F+TS    =    -448.58094182 Ry

     The total energy is F=E-TS. E is the sum of the following terms:
     one-electron contribution =    -163.31774287 Ry
     hartree contribution      =      95.72776919 Ry
     xc contribution           =     -52.73931644 Ry
     ewald contribution        =    -252.09989263 Ry
     one-center paw contrib.   =     -76.15175907 Ry

     convergence has been achieved in  28 iterations

     negative rho (up, down):  9.741E-04 0.000E+00

     Forces acting on atoms (cartesian axes, Ry/au):

     atom    1 type  1   force =     0.00000000    0.00000000    0.00000000
     atom    2 type  2   force =     0.00000000    0.00000000    0.00000000

     Total force =     0.000000     Total SCF correction =     0.000000


     Computing stress (Cartesian axis) and pressure


     negative rho (up, down):  9.741E-04 0.000E+00
          total   stress  (Ry/bohr**3)                   (kbar)     P=     -124.36
  -0.00084541   0.00000000   0.00000000         -124.36        0.00        0.00
   0.00000000  -0.00084541   0.00000000            0.00     -124.36        0.00
   0.00000000   0.00000000  -0.00084541            0.00        0.00     -124.36


     Writing all to output data dir ./TiFe.save/ :
     XML data file, charge density, pseudopotentials, collected wavefunctions

     init_run     :      1.09s CPU      1.13s WALL (       1 calls)
     electrons    :     38.03s CPU     39.89s WALL (       1 calls)
     forces       :      0.26s CPU      0.28s WALL (       1 calls)
     stress       :      1.56s CPU      1.62s WALL (       1 calls)

     Called by init_run:
     wfcinit      :      0.46s CPU      0.47s WALL (       1 calls)
     potinit      :      0.20s CPU      0.20s WALL (       1 calls)
     hinit0       :      0.25s CPU      0.26s WALL (       1 calls)

     Called by electrons:
     c_bands      :     24.47s CPU     24.96s WALL (      28 calls)
     sum_band     :      7.78s CPU      8.49s WALL (      28 calls)
     v_of_rho     :      0.64s CPU      0.70s WALL (      29 calls)
     newd         :      3.63s CPU      4.19s WALL (      29 calls)
     PAW_pot      :      1.56s CPU      1.59s WALL (      29 calls)
     mix_rho      :      0.08s CPU      0.09s WALL (      28 calls)

     Called by c_bands:
     init_us_2    :      0.56s CPU      0.58s WALL (    3304 calls)
     cegterg      :     23.50s CPU     23.94s WALL (    1568 calls)

     Called by *egterg:
     cdiaghg      :      1.98s CPU      2.01s WALL (    5488 calls)
     h_psi        :     19.43s CPU     19.81s WALL (    5544 calls)
     s_psi        :      0.37s CPU      0.37s WALL (    5544 calls)
     g_psi        :      0.08s CPU      0.08s WALL (    3920 calls)

     Called by h_psi:
     h_psi:calbec :      0.73s CPU      0.75s WALL (    5544 calls)
     vloc_psi     :     18.23s CPU     18.58s WALL (    5544 calls)
     add_vuspsi   :      0.39s CPU      0.39s WALL (    5544 calls)

     General routines
     calbec       :      1.09s CPU      1.11s WALL (    8064 calls)
     fft          :      0.51s CPU      0.58s WALL (     400 calls)
     ffts         :      0.12s CPU      0.12s WALL (      57 calls)
     fftw         :     18.50s CPU     18.83s WALL (  167078 calls)
     interpolate  :      0.14s CPU      0.15s WALL (      29 calls)

     Parallel routines

     PWSCF        :     41.23s CPU     43.40s WALL


   This run was terminated on:   0:49:44  25Oct2025            

=------------------------------------------------------------------------------=
   JOB DONE.
=------------------------------------------------------------------------------=
