
     Program PWSCF v.7.4 starts on 25Oct2025 at  0:41:45 

     This program is part of the open-source Quantum ESPRESSO suite
     for quantum simulation of materials; please cite
         "P. Giannozzi et al., J. Phys.:Condens. Matter 21 395502 (2009);
         "P. Giannozzi et al., J. Phys.:Condens. Matter 29 465901 (2017);
         "P. Giannozzi et al., J. Chem. Phys. 152 154105 (2020);
          URL http://www.quantum-espresso.org", 
     in publications or presentations arising from this work. More details at
     http://www.quantum-espresso.org/quote

     Parallel version (MPI & OpenMP), running on       8 processor cores
     Number of MPI processes:                 8
     Threads/MPI process:                     1

     MPI processes distributed on     1 nodes
     210297 MiB available memory on the printing compute node when the environment starts

     Reading input from TiFe_13.in

     Current dimensions of program PWSCF are:
     Max number of different atomic species (ntypx) = 10
     Max number of k-points (npk) =  40000
     Max angular momentum in pseudopotentials (lmaxx) =  4
     file Fe.pbe-spn-kjpaw_psl.0.2.1.UPF: wavefunction(s)  3D renormalized

     IMPORTANT: XC functional enforced from input :
     Exchange-correlation= PBE
                           (   1   4   3   4   0   0   0)
     Any further DFT definition will be discarded
     Please, verify this is what you really want

     Message from routine setup:
     using ibrav=0 with symmetry is DISCOURAGED, use correct ibrav instead

     R & G space division:  proc/nbgrp/npool/nimage =       8
     Subspace diagonalization in iterative solution of the eigenvalue problem:
     a serial algorithm will be used


     Parallelization info
     --------------------
     sticks:   dense  smooth     PW     G-vecs:    dense   smooth      PW
     Min         535     153     44                26429     4051     629
     Max         536     154     46                26434     4054     632
     Sum        4281    1225    357               211441    32423    5041

     Using Slab Decomposition



     bravais-lattice index     =            0
     lattice parameter (alat)  =       5.5722  a.u.
     unit-cell volume          =     173.0133 (a.u.)^3
     number of atoms/cell      =            2
     number of atomic types    =            2
     number of electrons       =        28.00
     number of Kohn-Sham states=           18
     kinetic-energy cutoff     =     124.0000  Ry
     charge density cutoff     =    1736.0000  Ry
     scf convergence threshold =      1.0E-08
     mixing beta               =       0.7000
     number of iterations used =            8  plain     mixing
     Exchange-correlation= PBE
                           (   1   4   3   4   0   0   0)

     celldm(1)=   5.572198  celldm(2)=   0.000000  celldm(3)=   0.000000
     celldm(4)=   0.000000  celldm(5)=   0.000000  celldm(6)=   0.000000

     crystal axes: (cart. coord. in units of alat)
               a(1) = (   1.000000   0.000000   0.000000 )  
               a(2) = (   0.000000   1.000000   0.000000 )  
               a(3) = (   0.000000   0.000000   1.000000 )  

     reciprocal axes: (cart. coord. in units 2 pi/alat)
               b(1) = (  1.000000  0.000000  0.000000 )  
               b(2) = (  0.000000  1.000000  0.000000 )  
               b(3) = (  0.000000  0.000000  1.000000 )  


     PseudoPot. # 1 for Fe read from file:
     ../pseudos/Fe.pbe-spn-kjpaw_psl.0.2.1.UPF
     MD5 check sum: e86618425769142926afa95317d90200
     Pseudo is Projector augmented-wave + core cor, Zval = 16.0
     Generated using "atomic" code by A. Dal Corso  v.5.0.99 svn rev. 10869
     Shape of augmentation charge: PSQ
     Using radial grid of 1191 points,  6 beta functions with: 
                l(1) =   0
                l(2) =   0
                l(3) =   1
                l(4) =   1
                l(5) =   2
                l(6) =   2
     Q(r) pseudized with 0 coefficients 


     PseudoPot. # 2 for Ti read from file:
     ../pseudos/ti_pbe_v1.4.uspp.F.UPF
     MD5 check sum: 88a00a6731bd790ddea75d31a80cb452
     Pseudo is Ultrasoft + core correction, Zval = 12.0
     Generated by new atomic code, or converted to UPF format
     Using radial grid of  851 points,  6 beta functions with: 
                l(1) =   0
                l(2) =   0
                l(3) =   1
                l(4) =   1
                l(5) =   2
                l(6) =   2
     Q(r) pseudized with  6 coefficients,  rinner =    1.000   1.000   1.000
                                                       1.000   1.000

     atomic species   valence    mass     pseudopotential
     Fe               16.00    55.84500     Fe( 1.00)
     Ti               12.00    47.86700     Ti( 1.00)

     48 Sym. Ops., with inversion, found



   Cartesian axes

     site n.     atom                  positions (alat units)
         1        Fe     tau(   1) = (   0.5000000   0.5000000   0.5000000  )
         2        Ti     tau(   2) = (   0.0000000   0.0000000   0.0000000  )

     number of k points=    56  Marzari-Vanderbilt smearing, width (Ry)=  0.0050
                       cart. coord. in units 2pi/alat
        k(    1) = (   0.0000000   0.0000000   0.0000000), wk =   0.0015026
        k(    2) = (   0.0000000   0.0000000   0.0909091), wk =   0.0090158
        k(    3) = (   0.0000000   0.0000000   0.1818182), wk =   0.0090158
        k(    4) = (   0.0000000   0.0000000   0.2727273), wk =   0.0090158
        k(    5) = (   0.0000000   0.0000000   0.3636364), wk =   0.0090158
        k(    6) = (   0.0000000   0.0000000   0.4545455), wk =   0.0090158
        k(    7) = (   0.0000000   0.0909091   0.0909091), wk =   0.0180316
        k(    8) = (   0.0000000   0.0909091   0.1818182), wk =   0.0360631
        k(    9) = (   0.0000000   0.0909091   0.2727273), wk =   0.0360631
        k(   10) = (   0.0000000   0.0909091   0.3636364), wk =   0.0360631
        k(   11) = (   0.0000000   0.0909091   0.4545455), wk =   0.0360631
        k(   12) = (   0.0000000   0.1818182   0.1818182), wk =   0.0180316
        k(   13) = (   0.0000000   0.1818182   0.2727273), wk =   0.0360631
        k(   14) = (   0.0000000   0.1818182   0.3636364), wk =   0.0360631
        k(   15) = (   0.0000000   0.1818182   0.4545455), wk =   0.0360631
        k(   16) = (   0.0000000   0.2727273   0.2727273), wk =   0.0180316
        k(   17) = (   0.0000000   0.2727273   0.3636364), wk =   0.0360631
        k(   18) = (   0.0000000   0.2727273   0.4545455), wk =   0.0360631
        k(   19) = (   0.0000000   0.3636364   0.3636364), wk =   0.0180316
        k(   20) = (   0.0000000   0.3636364   0.4545455), wk =   0.0360631
        k(   21) = (   0.0000000   0.4545455   0.4545455), wk =   0.0180316
        k(   22) = (   0.0909091   0.0909091   0.0909091), wk =   0.0120210
        k(   23) = (   0.0909091   0.0909091   0.1818182), wk =   0.0360631
        k(   24) = (   0.0909091   0.0909091   0.2727273), wk =   0.0360631
        k(   25) = (   0.0909091   0.0909091   0.3636364), wk =   0.0360631
        k(   26) = (   0.0909091   0.0909091   0.4545455), wk =   0.0360631
        k(   27) = (   0.0909091   0.1818182   0.1818182), wk =   0.0360631
        k(   28) = (   0.0909091   0.1818182   0.2727273), wk =   0.0721262
        k(   29) = (   0.0909091   0.1818182   0.3636364), wk =   0.0721262
        k(   30) = (   0.0909091   0.1818182   0.4545455), wk =   0.0721262
        k(   31) = (   0.0909091   0.2727273   0.2727273), wk =   0.0360631
        k(   32) = (   0.0909091   0.2727273   0.3636364), wk =   0.0721262
        k(   33) = (   0.0909091   0.2727273   0.4545455), wk =   0.0721262
        k(   34) = (   0.0909091   0.3636364   0.3636364), wk =   0.0360631
        k(   35) = (   0.0909091   0.3636364   0.4545455), wk =   0.0721262
        k(   36) = (   0.0909091   0.4545455   0.4545455), wk =   0.0360631
        k(   37) = (   0.1818182   0.1818182   0.1818182), wk =   0.0120210
        k(   38) = (   0.1818182   0.1818182   0.2727273), wk =   0.0360631
        k(   39) = (   0.1818182   0.1818182   0.3636364), wk =   0.0360631
        k(   40) = (   0.1818182   0.1818182   0.4545455), wk =   0.0360631
        k(   41) = (   0.1818182   0.2727273   0.2727273), wk =   0.0360631
        k(   42) = (   0.1818182   0.2727273   0.3636364), wk =   0.0721262
        k(   43) = (   0.1818182   0.2727273   0.4545455), wk =   0.0721262
        k(   44) = (   0.1818182   0.3636364   0.3636364), wk =   0.0360631
        k(   45) = (   0.1818182   0.3636364   0.4545455), wk =   0.0721262
        k(   46) = (   0.1818182   0.4545455   0.4545455), wk =   0.0360631
        k(   47) = (   0.2727273   0.2727273   0.2727273), wk =   0.0120210
        k(   48) = (   0.2727273   0.2727273   0.3636364), wk =   0.0360631
        k(   49) = (   0.2727273   0.2727273   0.4545455), wk =   0.0360631
        k(   50) = (   0.2727273   0.3636364   0.3636364), wk =   0.0360631
        k(   51) = (   0.2727273   0.3636364   0.4545455), wk =   0.0721262
        k(   52) = (   0.2727273   0.4545455   0.4545455), wk =   0.0360631
        k(   53) = (   0.3636364   0.3636364   0.3636364), wk =   0.0120210
        k(   54) = (   0.3636364   0.3636364   0.4545455), wk =   0.0360631
        k(   55) = (   0.3636364   0.4545455   0.4545455), wk =   0.0360631
        k(   56) = (   0.4545455   0.4545455   0.4545455), wk =   0.0120210

     Dense  grid:   211441 G-vectors     FFT dimensions: (  75,  75,  75)

     Smooth grid:    32423 G-vectors     FFT dimensions: (  40,  40,  40)

     Estimated max dynamical RAM per process >     111.40 MB

     Estimated total dynamical RAM >     891.21 MB

     Check: negative core charge=   -0.000002

     Initial potential from superposition of free atoms

     starting charge      26.9995, renormalised to      28.0000

     negative rho (up, down):  1.352E-03 0.000E+00
     Starting wfcs are   23 randomized atomic wfcs
     Checking if some PAW data can be deallocated... 

     total cpu time spent up to now is        1.4 secs

     per-process dynamical memory:   135.1 Mb

     Self-consistent Calculation

     iteration #  1     ecut=   124.00 Ry     beta= 0.70
     Davidson diagonalization with overlap
     ethr =  1.00E-02,  avg # of iterations =  2.1
     Minimization algorithm failed to find Fermi energy: reverting to bisection
     Possible cause: smearing is larger than the electronic band-gap.

     negative rho (up, down):  8.439E-05 0.000E+00

     total cpu time spent up to now is        2.5 secs

     total energy              =    -434.69798018 Ry
     estimated scf accuracy    <      17.69857541 Ry

     iteration #  2     ecut=   124.00 Ry     beta= 0.70
     Davidson diagonalization with overlap
     ethr =  1.00E-02,  avg # of iterations =  6.0

     negative rho (up, down):  2.018E-05 0.000E+00

     total cpu time spent up to now is        4.2 secs

     total energy              =    -448.50431246 Ry
     estimated scf accuracy    <      66.89322320 Ry

     iteration #  3     ecut=   124.00 Ry     beta= 0.70
     Davidson diagonalization with overlap
     ethr =  1.00E-02,  avg # of iterations =  3.1

     negative rho (up, down):  2.274E-04 0.000E+00

     total cpu time spent up to now is        5.5 secs

     total energy              =    -448.61326819 Ry
     estimated scf accuracy    <      16.96890982 Ry

     iteration #  4     ecut=   124.00 Ry     beta= 0.70
     Davidson diagonalization with overlap
     ethr =  1.00E-02,  avg # of iterations =  2.1

     negative rho (up, down):  2.734E-04 0.000E+00

     total cpu time spent up to now is        6.6 secs

     total energy              =    -449.11912363 Ry
     estimated scf accuracy    <       4.82978476 Ry

     iteration #  5     ecut=   124.00 Ry     beta= 0.70
     Davidson diagonalization with overlap
     ethr =  1.00E-02,  avg # of iterations =  1.1

     negative rho (up, down):  3.763E-04 0.000E+00

     total cpu time spent up to now is        7.5 secs

     total energy              =    -449.07826386 Ry
     estimated scf accuracy    <       4.34888707 Ry

     iteration #  6     ecut=   124.00 Ry     beta= 0.70
     Davidson diagonalization with overlap
     ethr =  1.00E-02,  avg # of iterations =  1.1

     negative rho (up, down):  1.076E-03 0.000E+00

     total cpu time spent up to now is        8.5 secs

     total energy              =    -447.95452195 Ry
     estimated scf accuracy    <       4.55161435 Ry

     iteration #  7     ecut=   124.00 Ry     beta= 0.70
     Davidson diagonalization with overlap
     ethr =  1.00E-02,  avg # of iterations =  3.1

     negative rho (up, down):  1.090E-03 0.000E+00

     total cpu time spent up to now is        9.6 secs

     total energy              =    -448.72262113 Ry
     estimated scf accuracy    <       2.34908355 Ry

     iteration #  8     ecut=   124.00 Ry     beta= 0.70
     Davidson diagonalization with overlap
     ethr =  8.39E-03,  avg # of iterations =  1.0

     negative rho (up, down):  7.901E-04 0.000E+00

     total cpu time spent up to now is       10.5 secs

     total energy              =    -448.39524088 Ry
     estimated scf accuracy    <       3.28164901 Ry

     iteration #  9     ecut=   124.00 Ry     beta= 0.70
     Davidson diagonalization with overlap
     ethr =  8.39E-03,  avg # of iterations =  1.1

     negative rho (up, down):  9.440E-04 0.000E+00

     total cpu time spent up to now is       11.5 secs

     total energy              =    -448.58368307 Ry
     estimated scf accuracy    <       0.02652487 Ry

     iteration # 10     ecut=   124.00 Ry     beta= 0.70
     Davidson diagonalization with overlap
     ethr =  9.47E-05,  avg # of iterations =  5.4

     negative rho (up, down):  3.847E-04 0.000E+00

     total cpu time spent up to now is       12.8 secs

     total energy              =    -448.57522734 Ry
     estimated scf accuracy    <       0.17746434 Ry

     iteration # 11     ecut=   124.00 Ry     beta= 0.70
     Davidson diagonalization with overlap
     ethr =  9.47E-05,  avg # of iterations =  4.9

     negative rho (up, down):  1.377E-04 0.000E+00

     total cpu time spent up to now is       14.1 secs

     total energy              =    -448.69912106 Ry
     estimated scf accuracy    <       0.42473168 Ry

     iteration # 12     ecut=   124.00 Ry     beta= 0.70
     Davidson diagonalization with overlap
     ethr =  9.47E-05,  avg # of iterations =  3.8

     negative rho (up, down):  1.547E-04 0.000E+00

     total cpu time spent up to now is       15.4 secs

     total energy              =    -448.74484888 Ry
     estimated scf accuracy    <       0.90824477 Ry

     iteration # 13     ecut=   124.00 Ry     beta= 0.70
     Davidson diagonalization with overlap
     ethr =  9.47E-05,  avg # of iterations =  2.8

     negative rho (up, down):  8.725E-04 0.000E+00

     total cpu time spent up to now is       16.4 secs

     total energy              =    -448.52568809 Ry
     estimated scf accuracy    <       1.54594515 Ry

     iteration # 14     ecut=   124.00 Ry     beta= 0.70
     Davidson diagonalization with overlap
     ethr =  9.47E-05,  avg # of iterations =  5.2

     negative rho (up, down):  1.178E-05 0.000E+00

     total cpu time spent up to now is       17.9 secs

     total energy              =    -448.76996906 Ry
     estimated scf accuracy    <       0.08412197 Ry

     iteration # 15     ecut=   124.00 Ry     beta= 0.70
     Davidson diagonalization with overlap
     ethr =  9.47E-05,  avg # of iterations =  6.2

     negative rho (up, down):  6.070E-05 0.000E+00

     total cpu time spent up to now is       19.5 secs

     total energy              =    -449.28739814 Ry
     estimated scf accuracy    <       3.01915186 Ry

     iteration # 16     ecut=   124.00 Ry     beta= 0.70
     Davidson diagonalization with overlap
     ethr =  9.47E-05,  avg # of iterations =  4.3

     negative rho (up, down):  1.280E-03 0.000E+00

     total cpu time spent up to now is       20.8 secs

     total energy              =    -448.15641750 Ry
     estimated scf accuracy    <       4.28579231 Ry

     iteration # 17     ecut=   124.00 Ry     beta= 0.70
     Davidson diagonalization with overlap
     ethr =  9.47E-05,  avg # of iterations =  7.5

     negative rho (up, down):  1.089E-03 0.000E+00

     total cpu time spent up to now is       22.7 secs

     total energy              =    -448.58332292 Ry
     estimated scf accuracy    <       0.41919350 Ry

     iteration # 18     ecut=   124.00 Ry     beta= 0.70
     Davidson diagonalization with overlap
     ethr =  9.47E-05,  avg # of iterations =  3.2

     negative rho (up, down):  1.061E-03 0.000E+00

     total cpu time spent up to now is       23.8 secs

     total energy              =    -448.58877441 Ry
     estimated scf accuracy    <       0.08326075 Ry

     iteration # 19     ecut=   124.00 Ry     beta= 0.70
     Davidson diagonalization with overlap
     ethr =  9.47E-05,  avg # of iterations =  1.0

     negative rho (up, down):  9.832E-04 0.000E+00

     total cpu time spent up to now is       24.7 secs

     total energy              =    -448.58253431 Ry
     estimated scf accuracy    <       0.04644183 Ry

     iteration # 20     ecut=   124.00 Ry     beta= 0.70
     Davidson diagonalization with overlap
     ethr =  9.47E-05,  avg # of iterations =  2.4

     negative rho (up, down):  8.592E-04 0.000E+00

     total cpu time spent up to now is       25.7 secs

     total energy              =    -448.58891969 Ry
     estimated scf accuracy    <       0.00194779 Ry

     iteration # 21     ecut=   124.00 Ry     beta= 0.70
     Davidson diagonalization with overlap
     ethr =  6.96E-06,  avg # of iterations =  5.5

     negative rho (up, down):  8.425E-04 0.000E+00

     total cpu time spent up to now is       27.2 secs

     total energy              =    -448.59421221 Ry
     estimated scf accuracy    <       0.12334326 Ry

     iteration # 22     ecut=   124.00 Ry     beta= 0.70
     Davidson diagonalization with overlap
     ethr =  6.96E-06,  avg # of iterations =  1.0

     negative rho (up, down):  8.529E-04 0.000E+00

     total cpu time spent up to now is       28.2 secs

     total energy              =    -448.59231239 Ry
     estimated scf accuracy    <       0.10734684 Ry

     iteration # 23     ecut=   124.00 Ry     beta= 0.70
     Davidson diagonalization with overlap
     ethr =  6.96E-06,  avg # of iterations =  1.5

     negative rho (up, down):  8.109E-04 0.000E+00

     total cpu time spent up to now is       29.1 secs

     total energy              =    -448.59668906 Ry
     estimated scf accuracy    <       0.07886752 Ry

     iteration # 24     ecut=   124.00 Ry     beta= 0.70
     Davidson diagonalization with overlap
     ethr =  6.96E-06,  avg # of iterations =  2.6

     negative rho (up, down):  9.267E-04 0.000E+00

     total cpu time spent up to now is       30.1 secs

     total energy              =    -448.58140892 Ry
     estimated scf accuracy    <       0.14572655 Ry

     iteration # 25     ecut=   124.00 Ry     beta= 0.70
     Davidson diagonalization with overlap
     ethr =  6.96E-06,  avg # of iterations =  5.0

     negative rho (up, down):  9.559E-04 0.000E+00

     total cpu time spent up to now is       31.5 secs

     WARNING: integrated charge=    28.00148289, expected=    28.00000000

     total energy              =    -448.58530732 Ry
     estimated scf accuracy    <       0.00476520 Ry

     iteration # 26     ecut=   124.00 Ry     beta= 0.70
     Davidson diagonalization with overlap
     ethr =  6.96E-06,  avg # of iterations =  1.9

     negative rho (up, down):  9.478E-04 0.000E+00

     total cpu time spent up to now is       32.5 secs

     WARNING: integrated charge=    28.00318450, expected=    28.00000000

     total energy              =    -448.58132014 Ry
     estimated scf accuracy    <       0.00036840 Ry

     iteration # 27     ecut=   124.00 Ry     beta= 0.70
     Davidson diagonalization with overlap
     ethr =  1.32E-06,  avg # of iterations =  2.6

     negative rho (up, down):  9.586E-04 0.000E+00

     total cpu time spent up to now is       33.5 secs

     WARNING: integrated charge=    28.00297151, expected=    28.00000000

     total energy              =    -448.58199177 Ry
     estimated scf accuracy    <       0.00066349 Ry

     iteration # 28     ecut=   124.00 Ry     beta= 0.70
     Davidson diagonalization with overlap
     ethr =  1.32E-06,  avg # of iterations =  2.1

     negative rho (up, down):  9.639E-04 0.000E+00

     total cpu time spent up to now is       34.5 secs

     WARNING: integrated charge=    27.99972060, expected=    28.00000000

     total energy              =    -448.58681085 Ry
     estimated scf accuracy    <       0.00011333 Ry

     iteration # 29     ecut=   124.00 Ry     beta= 0.70
     Davidson diagonalization with overlap
     ethr =  4.05E-07,  avg # of iterations =  2.7

     negative rho (up, down):  9.659E-04 0.000E+00

     total cpu time spent up to now is       35.6 secs

     WARNING: integrated charge=    27.99956208, expected=    28.00000000

     total energy              =    -448.58681800 Ry
     estimated scf accuracy    <       0.00003374 Ry

     iteration # 30     ecut=   124.00 Ry     beta= 0.70
     Davidson diagonalization with overlap
     ethr =  1.21E-07,  avg # of iterations =  3.8

     negative rho (up, down):  9.664E-04 0.000E+00

     total cpu time spent up to now is       36.7 secs

     WARNING: integrated charge=    28.00001786, expected=    28.00000000

     total energy              =    -448.58682304 Ry
     estimated scf accuracy    <       0.00000401 Ry

     iteration # 31     ecut=   124.00 Ry     beta= 0.70
     Davidson diagonalization with overlap
     ethr =  1.43E-08,  avg # of iterations =  3.9

     negative rho (up, down):  9.632E-04 0.000E+00

     total cpu time spent up to now is       37.9 secs

     WARNING: integrated charge=    28.00114223, expected=    28.00000000

     total energy              =    -448.58682375 Ry
     estimated scf accuracy    <       0.00000481 Ry

     iteration # 32     ecut=   124.00 Ry     beta= 0.70
     Davidson diagonalization with overlap
     ethr =  1.43E-08,  avg # of iterations =  4.0

     negative rho (up, down):  9.665E-04 0.000E+00

     total cpu time spent up to now is       39.1 secs

     WARNING: integrated charge=    28.00009165, expected=    28.00000000

     total energy              =    -448.58682173 Ry
     estimated scf accuracy    <       0.00000996 Ry

     iteration # 33     ecut=   124.00 Ry     beta= 0.70
     Davidson diagonalization with overlap
     ethr =  1.43E-08,  avg # of iterations =  4.0

     negative rho (up, down):  9.664E-04 0.000E+00

     total cpu time spent up to now is       40.3 secs

     WARNING: integrated charge=    28.00015702, expected=    28.00000000

     total energy              =    -448.58682369 Ry
     estimated scf accuracy    <       0.00000066 Ry

     iteration # 34     ecut=   124.00 Ry     beta= 0.70
     Davidson diagonalization with overlap
     ethr =  2.34E-09,  avg # of iterations =  1.4

     negative rho (up, down):  9.661E-04 0.000E+00

     total cpu time spent up to now is       41.3 secs

     WARNING: integrated charge=    28.00029088, expected=    28.00000000

     total energy              =    -448.58682365 Ry
     estimated scf accuracy    <       0.00000052 Ry

     iteration # 35     ecut=   124.00 Ry     beta= 0.70
     Davidson diagonalization with overlap
     ethr =  1.86E-09,  avg # of iterations =  1.2

     negative rho (up, down):  9.664E-04 0.000E+00

     total cpu time spent up to now is       42.2 secs

     WARNING: integrated charge=    28.00002804, expected=    28.00000000

     total energy              =    -448.58682369 Ry
     estimated scf accuracy    <       0.00000020 Ry

     iteration # 36     ecut=   124.00 Ry     beta= 0.70
     Davidson diagonalization with overlap
     ethr =  7.06E-10,  avg # of iterations =  2.2

     negative rho (up, down):  9.666E-04 0.000E+00

     total cpu time spent up to now is       43.3 secs

     WARNING: integrated charge=    28.00003166, expected=    28.00000000

     total energy              =    -448.58682377 Ry
     estimated scf accuracy    <       0.00000029 Ry

     iteration # 37     ecut=   124.00 Ry     beta= 0.70
     Davidson diagonalization with overlap
     ethr =  7.06E-10,  avg # of iterations =  1.1

     negative rho (up, down):  9.664E-04 0.000E+00

     total cpu time spent up to now is       44.3 secs

     WARNING: integrated charge=    28.00000335, expected=    28.00000000

     total energy              =    -448.58682367 Ry
     estimated scf accuracy    <       0.00000052 Ry

     iteration # 38     ecut=   124.00 Ry     beta= 0.70
     Davidson diagonalization with overlap
     ethr =  7.06E-10,  avg # of iterations =  2.0

     negative rho (up, down):  9.662E-04 0.000E+00

     total cpu time spent up to now is       45.3 secs

     WARNING: integrated charge=    28.00002873, expected=    28.00000000

     total energy              =    -448.58682363 Ry
     estimated scf accuracy    <       0.00000013 Ry

     iteration # 39     ecut=   124.00 Ry     beta= 0.70
     Davidson diagonalization with overlap
     ethr =  4.77E-10,  avg # of iterations =  3.7

     negative rho (up, down):  9.663E-04 0.000E+00

     total cpu time spent up to now is       46.4 secs

     WARNING: integrated charge=    28.00001075, expected=    28.00000000

     total energy              =    -448.58682366 Ry
     estimated scf accuracy    <       0.00000001 Ry

     iteration # 40     ecut=   124.00 Ry     beta= 0.70
     Davidson diagonalization with overlap
     ethr =  3.97E-11,  avg # of iterations =  2.8

     negative rho (up, down):  9.662E-04 0.000E+00

     total cpu time spent up to now is       47.5 secs

     End of self-consistent calculation

          k = 0.0000 0.0000 0.0000 (  3959 PWs)   bands (ev):

   -69.4110 -39.3802 -35.4716 -35.4716 -35.4716 -15.4773 -15.4773 -15.4773
     9.9776  13.7103  13.7103  16.4621  16.4621  16.4621  18.7747  18.7747
    20.6858  20.6858

          k = 0.0000 0.0000 0.0909 (  3987 PWs)   bands (ev):

   -69.4107 -39.3781 -35.4741 -35.4713 -35.4713 -15.5055 -15.4756 -15.4756
    10.1488  13.7926  13.7981  16.4494  16.4494  16.4995  18.6709  18.8136
    20.4389  20.4389

          k = 0.0000 0.0000 0.1818 (  4012 PWs)   bands (ev):

   -69.4100 -39.3726 -35.4807 -35.4703 -35.4703 -15.5807 -15.4711 -15.4711
    10.6459  14.0254  14.0333  16.4204  16.4204  16.6042  18.3710  18.9012
    19.8640  19.8640

          k = 0.0000 0.0000 0.2727 (  4028 PWs)   bands (ev):

   -69.4091 -39.3653 -35.4892 -35.4690 -35.4690 -15.6779 -15.4651 -15.4651
    11.4183  14.2827  14.4120  16.3954  16.3954  16.7528  17.9116  18.9319
    19.2274  19.2274

          k = 0.0000 0.0000 0.3636 (  4040 PWs)   bands (ev):

   -69.4082 -39.3587 -35.4970 -35.4678 -35.4678 -15.7662 -15.4596 -15.4596
    12.3731  14.3853  14.8807  16.3901  16.3901  16.9042  17.3656  18.7063
    18.7063  18.7397

          k = 0.0000 0.0000 0.4545 (  4044 PWs)   bands (ev):

   -69.4077 -39.3547 -35.5016 -35.4671 -35.4671 -15.8182 -15.4563 -15.4563
    13.3398  14.1147  15.3007  16.3983  16.3983  16.8984  17.0029  18.4115
    18.4115  18.4282

          k = 0.0000 0.0909 0.0909 (  4000 PWs)   bands (ev):

   -69.4104 -39.3760 -35.4749 -35.4727 -35.4709 -15.5065 -15.5006 -15.4738
    10.3167  13.8706  13.8866  16.3684  16.4291  16.5940  18.6560  18.7848
    20.1678  20.1921

          k = 0.0000 0.0909 0.1818 (  4008 PWs)   bands (ev):

   -69.4097 -39.3701 -35.4811 -35.4726 -35.4699 -15.5783 -15.4980 -15.4691
    10.8031  14.0844  14.1290  16.2892  16.3793  16.7096  18.4251  18.8613
    19.6316  19.6652

          k = 0.0000 0.0909 0.2727 (  4025 PWs)   bands (ev):

   -69.4088 -39.3624 -35.4898 -35.4719 -35.4687 -15.6746 -15.4912 -15.4628
    11.5554  14.3440  14.4795  16.2461  16.3231  16.7934  18.0340  18.8301
    19.1369  19.1725

          k = 0.0000 0.0909 0.3636 (  4040 PWs)   bands (ev):

   -69.4080 -39.3554 -35.4977 -35.4712 -35.4675 -15.7619 -15.4850 -15.4571
    12.4780  14.4376  14.9113  16.2512  16.2724  16.7999  17.5863  18.4240
    18.8433  18.9828

          k = 0.0000 0.0909 0.4545 (  4047 PWs)   bands (ev):

   -69.4075 -39.3512 -35.5025 -35.4708 -35.4668 -15.8134 -15.4812 -15.4537
    13.4004  14.1630  15.2949  16.2049  16.2870  16.7467  17.2642  18.1335
    18.7108  18.7900

          k = 0.0000 0.1818 0.1818 (  4034 PWs)   bands (ev):

   -69.4090 -39.3634 -35.4838 -35.4774 -35.4690 -15.5792 -15.5626 -15.4638
    11.2544  14.2281  14.4020  16.1177  16.2847  16.7853  18.4762  18.8208
    19.1213  19.3460

          k = 0.0000 0.1818 0.2727 (  4030 PWs)   bands (ev):

   -69.4081 -39.3546 -35.4915 -35.4795 -35.4678 -15.6657 -15.5607 -15.4568
    11.9382  14.3898  14.7730  15.9982  16.1940  16.7108  18.3056  18.5785
    18.9772  19.1696

          k = 0.0000 0.1818 0.3636 (  4029 PWs)   bands (ev):

   -69.4073 -39.3465 -35.4997 -35.4802 -35.4666 -15.7504 -15.5527 -15.4504
    12.7446  14.4200  15.1539  15.9626  16.1634  16.5045  18.0077  18.2423
    19.0984  19.1888

          k = 0.0000 0.1818 0.4545 (  4030 PWs)   bands (ev):

   -69.4068 -39.3417 -35.5047 -35.4805 -35.4660 -15.8005 -15.5478 -15.4466
    13.4962  14.1800  15.4319  16.0122  16.1939  16.2902  17.8395  17.9998
    19.1169  19.2838

          k = 0.0000 0.2727 0.2727 (  4048 PWs)   bands (ev):

   -69.4072 -39.3443 -35.4954 -35.4878 -35.4666 -15.6621 -15.6426 -15.4489
    12.4800  14.3669  15.2153  15.7930  16.1453  16.4474  18.3584  18.5319
    18.8779  19.3400

          k = 0.0000 0.2727 0.3636 (  4046 PWs)   bands (ev):

   -69.4064 -39.3348 -35.5026 -35.4919 -35.4655 -15.7355 -15.6403 -15.4417
    13.0425  14.2458  15.6527  15.6849  16.1279  16.2947  18.1769  18.5105
    19.0437  19.6116

          k = 0.0000 0.2727 0.4545 (  4039 PWs)   bands (ev):

   -69.4059 -39.3292 -35.5078 -35.4933 -35.4649 -15.7836 -15.6340 -15.4374
    13.4699  14.0525  15.6973  15.8693  15.8925  16.6385  17.9339  18.4673
    19.2495  19.8554

          k = 0.0000 0.3636 0.3636 (  4046 PWs)   bands (ev):

   -69.4055 -39.3241 -35.5061 -35.5016 -35.4645 -15.7265 -15.7152 -15.4336
    13.2461  14.0379  15.5009  15.7860  16.2485  16.6839  18.2995  18.8646
    18.8798  20.0102

          k = 0.0000 0.3636 0.4545 (  4043 PWs)   bands (ev):

   -69.4050 -39.3177 -35.5106 -35.5050 -35.4639 -15.7681 -15.7124 -15.4289
    13.3381  13.8972  15.4497  15.5498  16.6108  17.3208  18.0617  18.9222
    19.0883  20.3088

          k = 0.0000 0.4545 0.4545 (  4044 PWs)   bands (ev):

   -69.4046 -39.3108 -35.5124 -35.5118 -35.4633 -15.7595 -15.7579 -15.4238
    13.2339  13.8036  15.3306  15.3641  17.3007  17.7682  18.4364  18.6188
    19.1829  20.5763

          k = 0.0909 0.0909 0.0909 (  4001 PWs)   bands (ev):

   -69.4102 -39.3737 -35.4745 -35.4745 -35.4715 -15.5069 -15.4989 -15.4989
    10.4817  13.9606  13.9606  16.3462  16.3462  16.6698  18.7070  18.7070
    19.7564  20.4185

          k = 0.0909 0.0909 0.1818 (  4020 PWs)   bands (ev):

   -69.4095 -39.3675 -35.4812 -35.4735 -35.4714 -15.5759 -15.4976 -15.4942
    10.9589  14.1758  14.1920  16.2373  16.2873  16.7504  18.4826  18.8240
    19.2891  19.8409

          k = 0.0909 0.0909 0.2727 (  4023 PWs)   bands (ev):

   -69.4085 -39.3595 -35.4902 -35.4722 -35.4711 -15.6712 -15.4898 -15.4881
    11.6938  14.4453  14.5093  16.1791  16.2073  16.7456  18.1438  18.7744
    19.0958  19.2138

          k = 0.0909 0.0909 0.3636 (  4025 PWs)   bands (ev):

   -69.4077 -39.3521 -35.4983 -35.4710 -35.4708 -15.7578 -15.4825 -15.4825
    12.5881  14.5201  14.9119  16.1087  16.2085  16.6615  17.7648  18.4915
    18.7149  19.1890

          k = 0.0909 0.0909 0.4545 (  4033 PWs)   bands (ev):

   -69.4072 -39.3477 -35.5032 -35.4706 -35.4703 -15.8088 -15.4791 -15.4782
    13.4722  14.2308  15.2644  15.9860  16.3209  16.5737  17.4926  18.2081
    18.4419  19.2897

          k = 0.0909 0.1818 0.1818 (  4019 PWs)   bands (ev):

   -69.4088 -39.3606 -35.4834 -35.4781 -35.4715 -15.5761 -15.5607 -15.4902
    11.4056  14.3301  14.4515  16.0811  16.1792  16.7134  18.5445  18.7926
    19.0097  19.5610

          k = 0.0909 0.1818 0.2727 (  4027 PWs)   bands (ev):

   -69.4079 -39.3516 -35.4915 -35.4796 -35.4709 -15.6624 -15.5584 -15.4828
    12.0801  14.5073  14.7912  15.9550  16.0810  16.5347  18.3939  18.6979
    19.0133  19.2269

          k = 0.0909 0.1818 0.3636 (  4036 PWs)   bands (ev):

   -69.4070 -39.3433 -35.5000 -35.4800 -35.4701 -15.7468 -15.5503 -15.4759
    12.8699  14.5451  15.1086  15.8820  16.0719  16.3542  18.1599  18.3554
    18.8744  19.4853

          k = 0.0909 0.1818 0.4545 (  4039 PWs)   bands (ev):

   -69.4065 -39.3384 -35.5052 -35.4802 -35.4696 -15.7965 -15.5454 -15.4718
    13.5988  14.2896  15.3394  15.8145  16.1725  16.2956  17.9881  18.0692
    18.6745  19.8669

          k = 0.0909 0.2727 0.2727 (  4038 PWs)   bands (ev):

   -69.4069 -39.3413 -35.4950 -35.4881 -35.4699 -15.6585 -15.6408 -15.4747
    12.6255  14.4890  15.2247  15.7549  16.0182  16.2383  18.4742  18.6862
    18.8600  19.4715

          k = 0.0909 0.2727 0.3636 (  4043 PWs)   bands (ev):

   -69.4061 -39.3318 -35.5024 -35.4917 -35.4690 -15.7324 -15.6380 -15.4672
    13.1847  14.3695  15.5887  15.6463  16.0136  16.1626  18.2579  18.5994
    18.9296  19.8773

          k = 0.0909 0.2727 0.4545 (  4039 PWs)   bands (ev):

   -69.4056 -39.3261 -35.5078 -35.4929 -35.4684 -15.7805 -15.6318 -15.4627
    13.5982  14.1773  15.6149  15.6628  15.9627  16.5484  17.9705  18.5701
    18.8582  20.3537

          k = 0.0909 0.3636 0.3636 (  4038 PWs)   bands (ev):

   -69.4053 -39.3211 -35.5056 -35.5016 -35.4680 -15.7236 -15.7134 -15.4592
    13.3904  14.1608  15.4706  15.6979  16.2064  16.5137  18.2650  18.7578
    18.9641  20.3172

          k = 0.0909 0.3636 0.4545 (  4038 PWs)   bands (ev):

   -69.4048 -39.3148 -35.5103 -35.5046 -35.4674 -15.7657 -15.7104 -15.4544
    13.4731  14.0239  15.4175  15.4990  16.5363  17.1453  18.0209  18.7201
    19.0553  20.5474

          k = 0.0909 0.4545 0.4545 (  4033 PWs)   bands (ev):

   -69.4043 -39.3080 -35.5119 -35.5114 -35.4668 -15.7575 -15.7561 -15.4494
    13.3693  13.9304  15.3082  15.3373  17.2423  17.6243  18.1927  18.2864
    19.2602  20.7682

          k = 0.1818 0.1818 0.1818 (  4013 PWs)   bands (ev):

   -69.4081 -39.3533 -35.4823 -35.4823 -35.4760 -15.5723 -15.5559 -15.5559
    11.8367  14.5921  14.5921  15.9835  15.9835  16.4540  18.7098  18.7098
    19.0651  19.8000

          k = 0.1818 0.1818 0.2727 (  4041 PWs)   bands (ev):

   -69.4072 -39.3436 -35.4917 -35.4809 -35.4779 -15.6540 -15.5543 -15.5495
    12.4768  14.7990  14.8570  15.8479  15.8524  16.1452  18.5842  18.7812
    19.1986  19.3660

          k = 0.1818 0.1818 0.3636 (  4033 PWs)   bands (ev):

   -69.4063 -39.3347 -35.5009 -35.4796 -35.4790 -15.7369 -15.5439 -15.5437
    13.2000  14.8250  15.0299  15.7138  15.8802  16.0747  18.4522  18.5174
    18.7303  19.9187

          k = 0.1818 0.1818 0.4545 (  4036 PWs)   bands (ev):

   -69.4058 -39.3295 -35.5064 -35.4797 -35.4788 -15.7859 -15.5402 -15.5376
    13.8287  14.4965  15.2172  15.5936  15.9935  16.2495  18.1102  18.3793
    18.4618  20.2853

          k = 0.1818 0.2727 0.2727 (  4035 PWs)   bands (ev):

   -69.4063 -39.3331 -35.4938 -35.4890 -35.4788 -15.6487 -15.6358 -15.5432
    13.0333  14.8220  15.2463  15.6563  15.7333  15.8104  18.6017  18.7829
    19.1023  19.8373

          k = 0.1818 0.2727 0.3636 (  4031 PWs)   bands (ev):

   -69.4054 -39.3235 -35.5021 -35.4913 -35.4784 -15.7241 -15.6317 -15.5352
    13.5804  14.6939  15.3936  15.5423  15.7840  15.8969  18.3688  18.6132
    18.9963  20.1387

          k = 0.1818 0.2727 0.4545 (  4037 PWs)   bands (ev):

   -69.4049 -39.3177 -35.5080 -35.4919 -35.4780 -15.7720 -15.6259 -15.5304
    13.9448  14.4857  15.3702  15.4867  15.8672  16.3354  18.0125  18.4538
    18.9069  20.3561

          k = 0.1818 0.3636 0.3636 (  4030 PWs)   bands (ev):

   -69.4046 -39.3131 -35.5043 -35.5014 -35.4774 -15.7157 -15.7083 -15.5273
    13.8028  14.4817  15.3951  15.5075  16.0764  16.0957  18.2424  18.4722
    19.2566  20.2998

          k = 0.1818 0.3636 0.4545 (  4035 PWs)   bands (ev):

   -69.4041 -39.3069 -35.5096 -35.5035 -35.4768 -15.7592 -15.7049 -15.5225
    13.8565  14.3555  15.3409  15.3872  16.2903  16.7167  17.9610  18.3185
    19.3319  20.5378

          k = 0.1818 0.4545 0.4545 (  4042 PWs)   bands (ev):

   -69.4036 -39.3005 -35.5106 -35.5102 -35.4762 -15.7521 -15.7510 -15.5179
    13.7574  14.2685  15.2550  15.2761  16.9656  17.0674  17.8516  18.0319
    19.5176  20.8251

          k = 0.2727 0.2727 0.2727 (  4031 PWs)   bands (ev):

   -69.4054 -39.3225 -35.4922 -35.4922 -35.4884 -15.6387 -15.6292 -15.6292
    13.6014  15.2637  15.2637  15.3371  15.5361  15.5361  18.6092  18.6092
    19.5658  19.5658

          k = 0.2727 0.2727 0.3636 (  4030 PWs)   bands (ev):

   -69.4045 -39.3126 -35.5020 -35.4908 -35.4903 -15.7134 -15.6235 -15.6232
    14.1033  14.9565  15.2640  15.4366  15.5353  15.7469  18.3558  18.4026
    19.4153  20.0547

          k = 0.2727 0.2727 0.4545 (  4031 PWs)   bands (ev):

   -69.4040 -39.3068 -35.5083 -35.4910 -35.4900 -15.7609 -15.6196 -15.6165
    14.3284  14.7307  15.2534  15.3848  15.7077  16.1741  17.9565  18.2777
    19.3621  20.3897

          k = 0.2727 0.3636 0.3636 (  4028 PWs)   bands (ev):

   -69.4037 -39.3026 -35.5027 -35.5011 -35.4897 -15.7053 -15.7017 -15.6155
    14.4114  14.8230  15.3123  15.4034  15.6264  15.8668  18.1951  18.1970
    19.7148  20.2520

          k = 0.2727 0.3636 0.4545 (  4044 PWs)   bands (ev):

   -69.4032 -39.2966 -35.5086 -35.5020 -35.4892 -15.7508 -15.6977 -15.6108
    14.4044  14.7369  15.2731  15.3249  15.9061  16.2661  17.8607  18.1132
    19.7763  20.5728

          k = 0.2727 0.4545 0.4545 (  4049 PWs)   bands (ev):

   -69.4027 -39.2906 -35.5089 -35.5087 -35.4884 -15.7450 -15.7444 -15.6065
    14.3351  14.6967  15.2067  15.2337  16.4218  16.4500  17.6925  17.9537
    19.9510  20.8617

          k = 0.3636 0.3636 0.3636 (  4047 PWs)   bands (ev):

   -69.4029 -39.2929 -35.5012 -35.5012 -35.5009 -15.6960 -15.6956 -15.6956
    14.8194  15.1322  15.2666  15.2666  15.6259  15.6259  18.0238  18.0238
    20.2575  20.2575

          k = 0.3636 0.3636 0.4545 (  4042 PWs)   bands (ev):

   -69.4024 -39.2871 -35.5078 -35.5009 -35.5002 -15.7430 -15.6920 -15.6902
    14.8177  14.9840  15.2936  15.4235  15.6030  15.9663  17.7679  17.9478
    20.2700  20.6636

          k = 0.3636 0.4545 0.4545 (  4036 PWs)   bands (ev):

   -69.4019 -39.2815 -35.5073 -35.5073 -35.4997 -15.7384 -15.7384 -15.6871
    14.9240  15.0664  15.2080  15.3117  15.8977  15.9496  17.6524  17.8153
    20.4889  20.8906

          k = 0.4545 0.4545 0.4545 (  4020 PWs)   bands (ev):

   -69.4015 -39.2761 -35.5065 -35.5063 -35.5063 -15.7348 -15.7348 -15.7344
    15.1501  15.2898  15.2898  15.5916  15.5916  15.6103  17.6428  17.6428
    20.9070  20.9070

     the Fermi energy is    17.3787 ev

!    total energy              =    -448.58682367 Ry
     estimated scf accuracy    <          3.4E-10 Ry
     smearing contrib. (-TS)   =       0.00006009 Ry
     internal energy E=F+TS    =    -448.58688376 Ry

     The total energy is F=E-TS. E is the sum of the following terms:
     one-electron contribution =    -152.70188500 Ry
     hartree contribution      =      92.07744338 Ry
     xc contribution           =     -52.86926022 Ry
     ewald contribution        =    -258.93956035 Ry
     one-center paw contrib.   =     -76.15362157 Ry

     convergence has been achieved in  40 iterations

     negative rho (up, down):  9.662E-04 0.000E+00

     Forces acting on atoms (cartesian axes, Ry/au):

     atom    1 type  1   force =     0.00000000    0.00000000    0.00000000
     atom    2 type  2   force =     0.00000000    0.00000000    0.00000000

     Total force =     0.000000     Total SCF correction =     0.000000


     Computing stress (Cartesian axis) and pressure


     negative rho (up, down):  9.662E-04 0.000E+00
          total   stress  (Ry/bohr**3)                   (kbar)     P=       11.08
   0.00007529   0.00000000   0.00000000           11.08        0.00        0.00
   0.00000000   0.00007529   0.00000000            0.00       11.08        0.00
   0.00000000   0.00000000   0.00007529            0.00        0.00       11.08


     Writing all to output data dir ./TiFe.save/ :
     XML data file, charge density, pseudopotentials, collected wavefunctions

     init_run     :      1.11s CPU      1.18s WALL (       1 calls)
     electrons    :     43.59s CPU     46.15s WALL (       1 calls)
     forces       :      0.25s CPU      0.26s WALL (       1 calls)
     stress       :      1.43s CPU      1.49s WALL (       1 calls)

     Called by init_run:
     wfcinit      :      0.31s CPU      0.33s WALL (       1 calls)
     potinit      :      0.37s CPU      0.39s WALL (       1 calls)
     hinit0       :      0.25s CPU      0.26s WALL (       1 calls)

     Called by electrons:
     c_bands      :     27.34s CPU     28.03s WALL (      40 calls)
     sum_band     :      8.47s CPU      9.42s WALL (      40 calls)
     v_of_rho     :      0.91s CPU      0.99s WALL (      41 calls)
     newd         :      4.67s CPU      5.46s WALL (      41 calls)
     PAW_pot      :      2.19s CPU      2.25s WALL (      41 calls)
     mix_rho      :      0.11s CPU      0.12s WALL (      40 calls)

     Called by c_bands:
     init_us_2    :      0.72s CPU      0.74s WALL (    4648 calls)
     cegterg      :     26.07s CPU     26.70s WALL (    2240 calls)

     Called by *egterg:
     cdiaghg      :      3.20s CPU      3.26s WALL (    9091 calls)
     h_psi        :     19.23s CPU     19.74s WALL (    9147 calls)
     s_psi        :      0.55s CPU      0.57s WALL (    9147 calls)
     g_psi        :      0.12s CPU      0.12s WALL (    6851 calls)

     Called by h_psi:
     h_psi:calbec :      1.04s CPU      1.07s WALL (    9147 calls)
     vloc_psi     :     17.50s CPU     17.97s WALL (    9147 calls)
     add_vuspsi   :      0.58s CPU      0.59s WALL (    9147 calls)

     General routines
     calbec       :      1.43s CPU      1.46s WALL (   12339 calls)
     fft          :      0.64s CPU      0.73s WALL (     556 calls)
     ffts         :      0.29s CPU      0.30s WALL (      81 calls)
     fftw         :     16.16s CPU     16.57s WALL (  253702 calls)
     interpolate  :      0.33s CPU      0.34s WALL (      41 calls)

     Parallel routines

     PWSCF        :     46.66s CPU     49.54s WALL


   This run was terminated on:   0:42:35  25Oct2025            

=------------------------------------------------------------------------------=
   JOB DONE.
=------------------------------------------------------------------------------=
