
     Program PWSCF v.7.4 starts on 25Oct2025 at  0:40:24 

     This program is part of the open-source Quantum ESPRESSO suite
     for quantum simulation of materials; please cite
         "P. Giannozzi et al., J. Phys.:Condens. Matter 21 395502 (2009);
         "P. Giannozzi et al., J. Phys.:Condens. Matter 29 465901 (2017);
         "P. Giannozzi et al., J. Chem. Phys. 152 154105 (2020);
          URL http://www.quantum-espresso.org", 
     in publications or presentations arising from this work. More details at
     http://www.quantum-espresso.org/quote

     Parallel version (MPI & OpenMP), running on       8 processor cores
     Number of MPI processes:                 8
     Threads/MPI process:                     1

     MPI processes distributed on     1 nodes
     210204 MiB available memory on the printing compute node when the environment starts

     Reading input from TiFe_11.in

     Current dimensions of program PWSCF are:
     Max number of different atomic species (ntypx) = 10
     Max number of k-points (npk) =  40000
     Max angular momentum in pseudopotentials (lmaxx) =  4
     file Fe.pbe-spn-kjpaw_psl.0.2.1.UPF: wavefunction(s)  3D renormalized

     IMPORTANT: XC functional enforced from input :
     Exchange-correlation= PBE
                           (   1   4   3   4   0   0   0)
     Any further DFT definition will be discarded
     Please, verify this is what you really want

     Message from routine setup:
     using ibrav=0 with symmetry is DISCOURAGED, use correct ibrav instead

     R & G space division:  proc/nbgrp/npool/nimage =       8
     Subspace diagonalization in iterative solution of the eigenvalue problem:
     a serial algorithm will be used


     Parallelization info
     --------------------
     sticks:   dense  smooth     PW     G-vecs:    dense   smooth      PW
     Min         528     150     43                25846     3932     617
     Max         529     151     44                25847     3937     620
     Sum        4229    1201    349               206773    31463    4945

     Using Slab Decomposition



     bravais-lattice index     =            0
     lattice parameter (alat)  =       5.5344  a.u.
     unit-cell volume          =     169.5167 (a.u.)^3
     number of atoms/cell      =            2
     number of atomic types    =            2
     number of electrons       =        28.00
     number of Kohn-Sham states=           18
     kinetic-energy cutoff     =     124.0000  Ry
     charge density cutoff     =    1736.0000  Ry
     scf convergence threshold =      1.0E-08
     mixing beta               =       0.7000
     number of iterations used =            8  plain     mixing
     Exchange-correlation= PBE
                           (   1   4   3   4   0   0   0)

     celldm(1)=   5.534403  celldm(2)=   0.000000  celldm(3)=   0.000000
     celldm(4)=   0.000000  celldm(5)=   0.000000  celldm(6)=   0.000000

     crystal axes: (cart. coord. in units of alat)
               a(1) = (   1.000000   0.000000   0.000000 )  
               a(2) = (   0.000000   1.000000   0.000000 )  
               a(3) = (   0.000000   0.000000   1.000000 )  

     reciprocal axes: (cart. coord. in units 2 pi/alat)
               b(1) = (  1.000000  0.000000  0.000000 )  
               b(2) = (  0.000000  1.000000  0.000000 )  
               b(3) = (  0.000000  0.000000  1.000000 )  


     PseudoPot. # 1 for Fe read from file:
     ../pseudos/Fe.pbe-spn-kjpaw_psl.0.2.1.UPF
     MD5 check sum: e86618425769142926afa95317d90200
     Pseudo is Projector augmented-wave + core cor, Zval = 16.0
     Generated using "atomic" code by A. Dal Corso  v.5.0.99 svn rev. 10869
     Shape of augmentation charge: PSQ
     Using radial grid of 1191 points,  6 beta functions with: 
                l(1) =   0
                l(2) =   0
                l(3) =   1
                l(4) =   1
                l(5) =   2
                l(6) =   2
     Q(r) pseudized with 0 coefficients 


     PseudoPot. # 2 for Ti read from file:
     ../pseudos/ti_pbe_v1.4.uspp.F.UPF
     MD5 check sum: 88a00a6731bd790ddea75d31a80cb452
     Pseudo is Ultrasoft + core correction, Zval = 12.0
     Generated by new atomic code, or converted to UPF format
     Using radial grid of  851 points,  6 beta functions with: 
                l(1) =   0
                l(2) =   0
                l(3) =   1
                l(4) =   1
                l(5) =   2
                l(6) =   2
     Q(r) pseudized with  6 coefficients,  rinner =    1.000   1.000   1.000
                                                       1.000   1.000

     atomic species   valence    mass     pseudopotential
     Fe               16.00    55.84500     Fe( 1.00)
     Ti               12.00    47.86700     Ti( 1.00)

     48 Sym. Ops., with inversion, found



   Cartesian axes

     site n.     atom                  positions (alat units)
         1        Fe     tau(   1) = (   0.5000000   0.5000000   0.5000000  )
         2        Ti     tau(   2) = (   0.0000000   0.0000000   0.0000000  )

     number of k points=    56  Marzari-Vanderbilt smearing, width (Ry)=  0.0050
                       cart. coord. in units 2pi/alat
        k(    1) = (   0.0000000   0.0000000   0.0000000), wk =   0.0015026
        k(    2) = (   0.0000000   0.0000000   0.0909091), wk =   0.0090158
        k(    3) = (   0.0000000   0.0000000   0.1818182), wk =   0.0090158
        k(    4) = (   0.0000000   0.0000000   0.2727273), wk =   0.0090158
        k(    5) = (   0.0000000   0.0000000   0.3636364), wk =   0.0090158
        k(    6) = (   0.0000000   0.0000000   0.4545455), wk =   0.0090158
        k(    7) = (   0.0000000   0.0909091   0.0909091), wk =   0.0180316
        k(    8) = (   0.0000000   0.0909091   0.1818182), wk =   0.0360631
        k(    9) = (   0.0000000   0.0909091   0.2727273), wk =   0.0360631
        k(   10) = (   0.0000000   0.0909091   0.3636364), wk =   0.0360631
        k(   11) = (   0.0000000   0.0909091   0.4545455), wk =   0.0360631
        k(   12) = (   0.0000000   0.1818182   0.1818182), wk =   0.0180316
        k(   13) = (   0.0000000   0.1818182   0.2727273), wk =   0.0360631
        k(   14) = (   0.0000000   0.1818182   0.3636364), wk =   0.0360631
        k(   15) = (   0.0000000   0.1818182   0.4545455), wk =   0.0360631
        k(   16) = (   0.0000000   0.2727273   0.2727273), wk =   0.0180316
        k(   17) = (   0.0000000   0.2727273   0.3636364), wk =   0.0360631
        k(   18) = (   0.0000000   0.2727273   0.4545455), wk =   0.0360631
        k(   19) = (   0.0000000   0.3636364   0.3636364), wk =   0.0180316
        k(   20) = (   0.0000000   0.3636364   0.4545455), wk =   0.0360631
        k(   21) = (   0.0000000   0.4545455   0.4545455), wk =   0.0180316
        k(   22) = (   0.0909091   0.0909091   0.0909091), wk =   0.0120210
        k(   23) = (   0.0909091   0.0909091   0.1818182), wk =   0.0360631
        k(   24) = (   0.0909091   0.0909091   0.2727273), wk =   0.0360631
        k(   25) = (   0.0909091   0.0909091   0.3636364), wk =   0.0360631
        k(   26) = (   0.0909091   0.0909091   0.4545455), wk =   0.0360631
        k(   27) = (   0.0909091   0.1818182   0.1818182), wk =   0.0360631
        k(   28) = (   0.0909091   0.1818182   0.2727273), wk =   0.0721262
        k(   29) = (   0.0909091   0.1818182   0.3636364), wk =   0.0721262
        k(   30) = (   0.0909091   0.1818182   0.4545455), wk =   0.0721262
        k(   31) = (   0.0909091   0.2727273   0.2727273), wk =   0.0360631
        k(   32) = (   0.0909091   0.2727273   0.3636364), wk =   0.0721262
        k(   33) = (   0.0909091   0.2727273   0.4545455), wk =   0.0721262
        k(   34) = (   0.0909091   0.3636364   0.3636364), wk =   0.0360631
        k(   35) = (   0.0909091   0.3636364   0.4545455), wk =   0.0721262
        k(   36) = (   0.0909091   0.4545455   0.4545455), wk =   0.0360631
        k(   37) = (   0.1818182   0.1818182   0.1818182), wk =   0.0120210
        k(   38) = (   0.1818182   0.1818182   0.2727273), wk =   0.0360631
        k(   39) = (   0.1818182   0.1818182   0.3636364), wk =   0.0360631
        k(   40) = (   0.1818182   0.1818182   0.4545455), wk =   0.0360631
        k(   41) = (   0.1818182   0.2727273   0.2727273), wk =   0.0360631
        k(   42) = (   0.1818182   0.2727273   0.3636364), wk =   0.0721262
        k(   43) = (   0.1818182   0.2727273   0.4545455), wk =   0.0721262
        k(   44) = (   0.1818182   0.3636364   0.3636364), wk =   0.0360631
        k(   45) = (   0.1818182   0.3636364   0.4545455), wk =   0.0721262
        k(   46) = (   0.1818182   0.4545455   0.4545455), wk =   0.0360631
        k(   47) = (   0.2727273   0.2727273   0.2727273), wk =   0.0120210
        k(   48) = (   0.2727273   0.2727273   0.3636364), wk =   0.0360631
        k(   49) = (   0.2727273   0.2727273   0.4545455), wk =   0.0360631
        k(   50) = (   0.2727273   0.3636364   0.3636364), wk =   0.0360631
        k(   51) = (   0.2727273   0.3636364   0.4545455), wk =   0.0721262
        k(   52) = (   0.2727273   0.4545455   0.4545455), wk =   0.0360631
        k(   53) = (   0.3636364   0.3636364   0.3636364), wk =   0.0120210
        k(   54) = (   0.3636364   0.3636364   0.4545455), wk =   0.0360631
        k(   55) = (   0.3636364   0.4545455   0.4545455), wk =   0.0360631
        k(   56) = (   0.4545455   0.4545455   0.4545455), wk =   0.0120210

     Dense  grid:   206773 G-vectors     FFT dimensions: (  75,  75,  75)

     Smooth grid:    31463 G-vectors     FFT dimensions: (  40,  40,  40)

     Estimated max dynamical RAM per process >     109.19 MB

     Estimated total dynamical RAM >     873.53 MB

     Check: negative core charge=   -0.000002

     Initial potential from superposition of free atoms

     starting charge      26.9995, renormalised to      28.0000

     negative rho (up, down):  1.343E-03 0.000E+00
     Starting wfcs are   23 randomized atomic wfcs
     Checking if some PAW data can be deallocated... 

     total cpu time spent up to now is        1.4 secs

     per-process dynamical memory:   134.9 Mb

     Self-consistent Calculation

     iteration #  1     ecut=   124.00 Ry     beta= 0.70
     Davidson diagonalization with overlap
     ethr =  1.00E-02,  avg # of iterations =  2.1
     Minimization algorithm failed to find Fermi energy: reverting to bisection
     Possible cause: smearing is larger than the electronic band-gap.

     negative rho (up, down):  7.465E-05 0.000E+00

     total cpu time spent up to now is        2.5 secs

     total energy              =    -435.06851749 Ry
     estimated scf accuracy    <      17.24877048 Ry

     iteration #  2     ecut=   124.00 Ry     beta= 0.70
     Davidson diagonalization with overlap
     ethr =  1.00E-02,  avg # of iterations =  6.0

     negative rho (up, down):  2.847E-05 0.000E+00

     total cpu time spent up to now is        4.2 secs

     total energy              =    -448.52128518 Ry
     estimated scf accuracy    <      65.34027874 Ry

     iteration #  3     ecut=   124.00 Ry     beta= 0.70
     Davidson diagonalization with overlap
     ethr =  1.00E-02,  avg # of iterations =  3.1

     negative rho (up, down):  2.474E-04 0.000E+00

     total cpu time spent up to now is        5.4 secs

     total energy              =    -448.57080807 Ry
     estimated scf accuracy    <      16.59061167 Ry

     iteration #  4     ecut=   124.00 Ry     beta= 0.70
     Davidson diagonalization with overlap
     ethr =  1.00E-02,  avg # of iterations =  2.1

     negative rho (up, down):  2.803E-04 0.000E+00

     total cpu time spent up to now is        6.5 secs

     total energy              =    -449.10339412 Ry
     estimated scf accuracy    <       4.55485163 Ry

     iteration #  5     ecut=   124.00 Ry     beta= 0.70
     Davidson diagonalization with overlap
     ethr =  1.00E-02,  avg # of iterations =  1.0

     negative rho (up, down):  2.932E-04 0.000E+00

     total cpu time spent up to now is        7.5 secs

     total energy              =    -449.12406536 Ry
     estimated scf accuracy    <       4.19282986 Ry

     iteration #  6     ecut=   124.00 Ry     beta= 0.70
     Davidson diagonalization with overlap
     ethr =  1.00E-02,  avg # of iterations =  1.0

     negative rho (up, down):  7.154E-04 0.000E+00

     total cpu time spent up to now is        8.4 secs

     total energy              =    -448.35901936 Ry
     estimated scf accuracy    <       4.25717685 Ry

     iteration #  7     ecut=   124.00 Ry     beta= 0.70
     Davidson diagonalization with overlap
     ethr =  1.00E-02,  avg # of iterations =  1.5

     negative rho (up, down):  7.529E-04 0.000E+00

     total cpu time spent up to now is        9.4 secs

     total energy              =    -448.59513098 Ry
     estimated scf accuracy    <       0.24931910 Ry

     iteration #  8     ecut=   124.00 Ry     beta= 0.70
     Davidson diagonalization with overlap
     ethr =  8.90E-04,  avg # of iterations =  3.4

     negative rho (up, down):  1.285E-03 0.000E+00

     total cpu time spent up to now is       10.5 secs

     total energy              =    -448.52952976 Ry
     estimated scf accuracy    <       0.43789186 Ry

     iteration #  9     ecut=   124.00 Ry     beta= 0.70
     Davidson diagonalization with overlap
     ethr =  8.90E-04,  avg # of iterations =  4.2

     negative rho (up, down):  1.158E-03 0.000E+00

     total cpu time spent up to now is       11.7 secs

     total energy              =    -448.61282537 Ry
     estimated scf accuracy    <       0.10429154 Ry

     iteration # 10     ecut=   124.00 Ry     beta= 0.70
     Davidson diagonalization with overlap
     ethr =  3.72E-04,  avg # of iterations =  2.9

     negative rho (up, down):  1.089E-03 0.000E+00

     total cpu time spent up to now is       12.8 secs

     total energy              =    -448.61310698 Ry
     estimated scf accuracy    <       0.58687557 Ry

     iteration # 11     ecut=   124.00 Ry     beta= 0.70
     Davidson diagonalization with overlap
     ethr =  3.72E-04,  avg # of iterations =  1.0

     negative rho (up, down):  8.292E-04 0.000E+00

     total cpu time spent up to now is       13.7 secs

     total energy              =    -448.58773865 Ry
     estimated scf accuracy    <       0.28302004 Ry

     iteration # 12     ecut=   124.00 Ry     beta= 0.70
     Davidson diagonalization with overlap
     ethr =  3.72E-04,  avg # of iterations =  2.0

     negative rho (up, down):  8.681E-04 0.000E+00

     total cpu time spent up to now is       14.8 secs

     total energy              =    -448.56703051 Ry
     estimated scf accuracy    <       0.29152516 Ry

     iteration # 13     ecut=   124.00 Ry     beta= 0.70
     Davidson diagonalization with overlap
     ethr =  3.72E-04,  avg # of iterations =  2.7

     negative rho (up, down):  8.362E-04 0.000E+00

     total cpu time spent up to now is       15.8 secs

     total energy              =    -448.58608994 Ry
     estimated scf accuracy    <       0.00229404 Ry

     iteration # 14     ecut=   124.00 Ry     beta= 0.70
     Davidson diagonalization with overlap
     ethr =  8.19E-06,  avg # of iterations =  5.5

     negative rho (up, down):  1.275E-03 0.000E+00

     total cpu time spent up to now is       17.2 secs

     total energy              =    -448.57666781 Ry
     estimated scf accuracy    <       0.02268138 Ry

     iteration # 15     ecut=   124.00 Ry     beta= 0.70
     Davidson diagonalization with overlap
     ethr =  8.19E-06,  avg # of iterations =  7.4

     negative rho (up, down):  9.229E-04 0.000E+00

     total cpu time spent up to now is       19.0 secs

     total energy              =    -448.52124702 Ry
     estimated scf accuracy    <       0.95354594 Ry

     iteration # 16     ecut=   124.00 Ry     beta= 0.70
     Davidson diagonalization with overlap
     ethr =  8.19E-06,  avg # of iterations =  6.7

     negative rho (up, down):  9.444E-04 0.000E+00

     total cpu time spent up to now is       20.7 secs

     total energy              =    -448.58612723 Ry
     estimated scf accuracy    <       0.00438000 Ry

     iteration # 17     ecut=   124.00 Ry     beta= 0.70
     Davidson diagonalization with overlap
     ethr =  8.19E-06,  avg # of iterations =  1.0

     negative rho (up, down):  9.566E-04 0.000E+00

     total cpu time spent up to now is       21.6 secs

     total energy              =    -448.58601595 Ry
     estimated scf accuracy    <       0.00233398 Ry

     iteration # 18     ecut=   124.00 Ry     beta= 0.70
     Davidson diagonalization with overlap
     ethr =  8.19E-06,  avg # of iterations =  1.1

     negative rho (up, down):  9.629E-04 0.000E+00

     total cpu time spent up to now is       22.6 secs

     total energy              =    -448.58599469 Ry
     estimated scf accuracy    <       0.00063243 Ry

     iteration # 19     ecut=   124.00 Ry     beta= 0.70
     Davidson diagonalization with overlap
     ethr =  2.26E-06,  avg # of iterations =  1.6
     Minimization algorithm failed to find Fermi energy: reverting to bisection
     Possible cause: smearing is larger than the electronic band-gap.

     negative rho (up, down):  9.627E-04 0.000E+00

     total cpu time spent up to now is       23.6 secs

     total energy              =    -448.58602745 Ry
     estimated scf accuracy    <       0.00002079 Ry

     iteration # 20     ecut=   124.00 Ry     beta= 0.70
     Davidson diagonalization with overlap
     ethr =  7.42E-08,  avg # of iterations =  4.5

     negative rho (up, down):  9.626E-04 0.000E+00

     total cpu time spent up to now is       24.8 secs

     total energy              =    -448.58603356 Ry
     estimated scf accuracy    <       0.00000623 Ry

     iteration # 21     ecut=   124.00 Ry     beta= 0.70
     Davidson diagonalization with overlap
     ethr =  2.22E-08,  avg # of iterations =  2.1

     negative rho (up, down):  9.814E-04 0.000E+00

     total cpu time spent up to now is       25.8 secs

     total energy              =    -448.58607057 Ry
     estimated scf accuracy    <       0.00000765 Ry

     iteration # 22     ecut=   124.00 Ry     beta= 0.70
     Davidson diagonalization with overlap
     ethr =  2.22E-08,  avg # of iterations =  7.1

     negative rho (up, down):  9.596E-04 0.000E+00

     total cpu time spent up to now is       27.5 secs

     total energy              =    -448.58578500 Ry
     estimated scf accuracy    <       0.00302378 Ry

     iteration # 23     ecut=   124.00 Ry     beta= 0.70
     Davidson diagonalization with overlap
     ethr =  2.22E-08,  avg # of iterations =  7.1

     negative rho (up, down):  9.608E-04 0.000E+00

     total cpu time spent up to now is       29.3 secs

     total energy              =    -448.58603521 Ry
     estimated scf accuracy    <       0.00014160 Ry

     iteration # 24     ecut=   124.00 Ry     beta= 0.70
     Davidson diagonalization with overlap
     ethr =  2.22E-08,  avg # of iterations =  2.7

     negative rho (up, down):  9.606E-04 0.000E+00

     total cpu time spent up to now is       30.4 secs

     total energy              =    -448.58603408 Ry
     estimated scf accuracy    <       0.00005789 Ry

     iteration # 25     ecut=   124.00 Ry     beta= 0.70
     Davidson diagonalization with overlap
     ethr =  2.22E-08,  avg # of iterations =  1.8

     negative rho (up, down):  9.607E-04 0.000E+00

     total cpu time spent up to now is       31.3 secs

     total energy              =    -448.58603348 Ry
     estimated scf accuracy    <       0.00003041 Ry

     iteration # 26     ecut=   124.00 Ry     beta= 0.70
     Davidson diagonalization with overlap
     ethr =  2.22E-08,  avg # of iterations =  1.1

     negative rho (up, down):  9.617E-04 0.000E+00

     total cpu time spent up to now is       32.3 secs

     total energy              =    -448.58603169 Ry
     estimated scf accuracy    <       0.00001806 Ry

     iteration # 27     ecut=   124.00 Ry     beta= 0.70
     Davidson diagonalization with overlap
     ethr =  2.22E-08,  avg # of iterations =  3.0
     Minimization algorithm failed to find Fermi energy: reverting to bisection
     Possible cause: smearing is larger than the electronic band-gap.

     negative rho (up, down):  9.617E-04 0.000E+00

     total cpu time spent up to now is       33.3 secs

     total energy              =    -448.58603256 Ry
     estimated scf accuracy    <       0.00000044 Ry

     iteration # 28     ecut=   124.00 Ry     beta= 0.70
     Davidson diagonalization with overlap
     ethr =  1.57E-09,  avg # of iterations =  2.7
     Minimization algorithm failed to find Fermi energy: reverting to bisection
     Possible cause: smearing is larger than the electronic band-gap.

     negative rho (up, down):  9.618E-04 0.000E+00

     total cpu time spent up to now is       34.3 secs

     total energy              =    -448.58603260 Ry
     estimated scf accuracy    <       0.00000014 Ry

     iteration # 29     ecut=   124.00 Ry     beta= 0.70
     Davidson diagonalization with overlap
     ethr =  5.04E-10,  avg # of iterations =  2.9
     Minimization algorithm failed to find Fermi energy: reverting to bisection
     Possible cause: smearing is larger than the electronic band-gap.

     negative rho (up, down):  9.618E-04 0.000E+00

     total cpu time spent up to now is       35.4 secs

     total energy              =    -448.58603262 Ry
     estimated scf accuracy    <       0.00000002 Ry

     iteration # 30     ecut=   124.00 Ry     beta= 0.70
     Davidson diagonalization with overlap
     ethr =  5.78E-11,  avg # of iterations =  4.1

     negative rho (up, down):  9.617E-04 0.000E+00

     total cpu time spent up to now is       36.6 secs

     End of self-consistent calculation

          k = 0.0000 0.0000 0.0000 (  3911 PWs)   bands (ev):

   -69.0070 -38.9211 -35.0685 -35.0685 -35.0685 -15.0123 -15.0123 -15.0123
    10.3310  14.0190  14.0190  16.8539  16.8539  16.8539  19.2244  19.2244
    21.1901  21.1901

          k = 0.0000 0.0000 0.0909 (  3915 PWs)   bands (ev):

   -69.0067 -38.9190 -35.0711 -35.0681 -35.0681 -15.0427 -15.0105 -15.0105
    10.5055  14.1032  14.1109  16.8411  16.8411  16.8923  19.1169  19.2650
    20.9355  20.9355

          k = 0.0000 0.0000 0.1818 (  3919 PWs)   bands (ev):

   -69.0059 -38.9131 -35.0780 -35.0670 -35.0670 -15.1235 -15.0057 -15.0057
    11.0116  14.3495  14.3496  16.8117  16.8117  16.9999  18.8064  19.3572
    20.3432  20.3432

          k = 0.0000 0.0000 0.2727 (  3956 PWs)   bands (ev):

   -69.0049 -38.9054 -35.0870 -35.0656 -35.0656 -15.2280 -14.9994 -14.9994
    11.7961  14.6241  14.7374  16.7868  16.7868  17.1528  18.3311  19.3943
    19.6878  19.6878

          k = 0.0000 0.0000 0.3636 (  3960 PWs)   bands (ev):

   -69.0040 -38.8984 -35.0952 -35.0643 -35.0643 -15.3228 -14.9936 -14.9936
    12.7619  14.7473  15.2182  16.7824  16.7824  17.3086  17.7670  19.1511
    19.1511  19.2064

          k = 0.0000 0.0000 0.4545 (  3964 PWs)   bands (ev):

   -69.0034 -38.8942 -35.1000 -35.0635 -35.0635 -15.3786 -14.9901 -14.9901
    13.7326  14.4967  15.6501  16.7920  16.7920  17.2841  17.4102  18.8473
    18.8473  18.8927

          k = 0.0000 0.0909 0.0909 (  3928 PWs)   bands (ev):

   -69.0064 -38.9166 -35.0721 -35.0695 -35.0677 -15.0439 -15.0373 -15.0086
    10.6765  14.1841  14.2024  16.7572  16.8203  16.9902  19.1016  19.2352
    20.6557  20.6812

          k = 0.0000 0.0909 0.1818 (  3930 PWs)   bands (ev):

   -69.0057 -38.9104 -35.0786 -35.0695 -35.0666 -15.1210 -15.0346 -15.0036
    11.1712  14.4053  14.4541  16.6757  16.7696  17.1097  18.8625  19.3158
    20.1044  20.1377

          k = 0.0000 0.0909 0.2727 (  3953 PWs)   bands (ev):

   -69.0046 -38.9022 -35.0877 -35.0687 -35.0653 -15.2244 -15.0275 -14.9970
    11.9345  14.6834  14.8115  16.6317  16.7127  17.1961  18.4578  19.2881
    19.5964  19.6304

          k = 0.0000 0.0909 0.3636 (  3964 PWs)   bands (ev):

   -69.0037 -38.8947 -35.0961 -35.0680 -35.0640 -15.3181 -15.0208 -14.9909
    12.8665  14.7987  15.2523  16.6381  16.6612  17.2021  17.9957  18.8705
    19.2921  19.4467

          k = 0.0000 0.0909 0.4545 (  3960 PWs)   bands (ev):

   -69.0031 -38.8903 -35.1010 -35.0675 -35.0632 -15.3733 -15.0168 -14.9873
    13.7911  14.5433  15.6456  16.5912  16.6765  17.1458  17.6646  18.5745
    19.1564  19.2526

          k = 0.0000 0.1818 0.1818 (  3934 PWs)   bands (ev):

   -69.0049 -38.9032 -35.0817 -35.0743 -35.0656 -15.1222 -15.1037 -14.9980
    11.6289  14.5538  14.7375  16.4985  16.6733  17.1885  18.9160  19.2736
    19.5806  19.8083

          k = 0.0000 0.1818 0.2727 (  3955 PWs)   bands (ev):

   -69.0039 -38.8937 -35.0899 -35.0767 -35.0643 -15.2147 -15.1020 -14.9905
    12.3198  14.7250  15.1216  16.3756  16.5821  17.1118  18.7386  19.0270
    19.4351  19.6271

          k = 0.0000 0.1818 0.3636 (  3960 PWs)   bands (ev):

   -69.0029 -38.8850 -35.0985 -35.0777 -35.0630 -15.3056 -15.0933 -14.9837
    13.1291  14.7707  15.5129  16.3394  16.5535  16.8984  18.4311  18.6838
    19.5651  19.6480

          k = 0.0000 0.1818 0.4545 (  3957 PWs)   bands (ev):

   -69.0024 -38.8798 -35.1037 -35.0781 -35.0623 -15.3593 -15.0881 -14.9797
    13.8747  14.5484  15.7956  16.3919  16.5889  16.6760  18.2589  18.4362
    19.5901  19.7470

          k = 0.0000 0.2727 0.2727 (  3954 PWs)   bands (ev):

   -69.0028 -38.8824 -35.0944 -35.0855 -35.0630 -15.2111 -15.1895 -14.9821
    12.8604  14.7046  15.5796  16.1641  16.5372  16.8401  18.8019  18.9710
    19.3354  19.8033

          k = 0.0000 0.2727 0.3636 (  3958 PWs)   bands (ev):

   -69.0019 -38.8721 -35.1019 -35.0902 -35.0618 -15.2894 -15.1871 -14.9743
    13.4131  14.5894  16.0313  16.0529  16.5103  16.6984  18.6174  18.9503
    19.5090  20.0840

          k = 0.0000 0.2727 0.4545 (  3957 PWs)   bands (ev):

   -69.0014 -38.8659 -35.1073 -35.0920 -35.0611 -15.3408 -15.1803 -14.9697
    13.8243  14.4061  16.0664  16.2431  16.2792  17.0578  18.3709  18.9041
    19.7276  20.3358

          k = 0.0000 0.3636 0.3636 (  3962 PWs)   bands (ev):

   -69.0010 -38.8602 -35.1060 -35.1008 -35.0607 -15.2796 -15.2671 -14.9656
    13.5957  14.3800  15.8635  16.1578  16.6454  17.1069  18.7478  19.3141
    19.3438  20.4950

          k = 0.0000 0.3636 0.4545 (  3959 PWs)   bands (ev):

   -69.0005 -38.8532 -35.1107 -35.1048 -35.0600 -15.3238 -15.2641 -14.9605
    13.6716  14.2415  15.8111  15.9142  17.0199  17.7604  18.5066  19.3768
    19.5610  20.8031

          k = 0.0000 0.4545 0.4545 (  3962 PWs)   bands (ev):

   -68.9999 -38.8455 -35.1129 -35.1122 -35.0593 -15.3144 -15.3127 -14.9550
    13.5572  14.1432  15.6884  15.7230  17.7232  18.2104  18.9009  19.0887
    19.6436  21.0790

          k = 0.0909 0.0909 0.0909 (  3938 PWs)   bands (ev):

   -69.0061 -38.9142 -35.0717 -35.0717 -35.0682 -15.0444 -15.0355 -15.0355
    10.8444  14.2781  14.2781  16.7344  16.7344  17.0689  19.1546  19.1546
    20.2320  20.9146

          k = 0.0909 0.0909 0.1818 (  3934 PWs)   bands (ev):

   -69.0054 -38.9076 -35.0788 -35.0706 -35.0681 -15.1184 -15.0342 -15.0305
    11.3295  14.4983  14.5207  16.6223  16.6742  17.1527  18.9222  19.2771
    19.7511  20.3197

          k = 0.0909 0.0909 0.2727 (  3950 PWs)   bands (ev):

   -69.0043 -38.8990 -35.0882 -35.0691 -35.0678 -15.2207 -15.0259 -15.0241
    12.0745  14.7904  14.8398  16.5632  16.5925  17.1478  18.5714  19.2295
    19.5542  19.6745

          k = 0.0909 0.0909 0.3636 (  3959 PWs)   bands (ev):

   -69.0034 -38.8911 -35.0968 -35.0678 -35.0675 -15.3137 -15.0182 -15.0181
    12.9769  14.8840  15.2526  16.4915  16.5949  17.0600  18.1799  18.9438
    19.1613  19.6544

          k = 0.0909 0.0909 0.4545 (  3952 PWs)   bands (ev):

   -69.0028 -38.8865 -35.1019 -35.0673 -35.0670 -15.3684 -15.0146 -15.0135
    13.8618  14.6112  15.6142  16.3653  16.7128  16.9685  17.8995  18.6579
    18.8801  19.7607

          k = 0.0909 0.1818 0.1818 (  3950 PWs)   bands (ev):

   -69.0046 -38.9002 -35.0813 -35.0752 -35.0682 -15.1188 -15.1018 -15.0263
    11.7826  14.6594  14.7881  16.4611  16.5636  17.1155  18.9868  19.2444
    19.4647  20.0315

          k = 0.0909 0.1818 0.2727 (  3961 PWs)   bands (ev):

   -69.0036 -38.8904 -35.0899 -35.0769 -35.0676 -15.2112 -15.0995 -15.0184
    12.4640  14.8459  15.1404  16.3315  16.4644  16.9309  18.8304  19.1506
    19.4709  19.6876

          k = 0.0909 0.1818 0.3636 (  3953 PWs)   bands (ev):

   -69.0026 -38.8814 -35.0989 -35.0774 -35.0668 -15.3016 -15.0908 -15.0110
    13.2562  14.8999  15.4655  16.2576  16.4575  16.7440  18.5874  18.8015
    19.3309  19.9574

          k = 0.0909 0.1818 0.4545 (  3953 PWs)   bands (ev):

   -69.0021 -38.8761 -35.1043 -35.0778 -35.0662 -15.3550 -15.0855 -15.0066
    13.9789  14.6609  15.6978  16.1914  16.5592  16.6887  18.4124  18.5081
    19.1266  20.3530

          k = 0.0909 0.2727 0.2727 (  3953 PWs)   bands (ev):

   -69.0026 -38.8791 -35.0939 -35.0859 -35.0666 -15.2071 -15.1875 -15.0097
    13.0089  14.8303  15.5891  16.1253  16.4045  16.6253  18.9211  19.1290
    19.3174  19.9408

          k = 0.0909 0.2727 0.3636 (  3950 PWs)   bands (ev):

   -69.0016 -38.8687 -35.1017 -35.0901 -35.0656 -15.2860 -15.1847 -15.0017
    13.5585  14.7165  15.9619  16.0165  16.3947  16.5602  18.7009  19.0418
    19.3899  20.3601

          k = 0.0909 0.2727 0.4545 (  3956 PWs)   bands (ev):

   -69.0011 -38.8625 -35.1075 -35.0916 -35.0650 -15.3374 -15.1780 -14.9969
    13.9552  14.5339  15.9817  16.0348  16.3500  16.9627  18.4092  19.0098
    19.3193  20.8500

          k = 0.0909 0.3636 0.3636 (  3953 PWs)   bands (ev):

   -69.0007 -38.8570 -35.1055 -35.1007 -35.0645 -15.2764 -15.2651 -14.9930
    13.7430  14.5064  15.8328  16.0677  16.6026  16.9312  18.7098  19.2188
    19.4159  20.8131

          k = 0.0909 0.3636 0.4545 (  3958 PWs)   bands (ev):

   -69.0002 -38.8500 -35.1104 -35.1043 -35.0638 -15.3213 -15.2620 -14.9879
    13.8092  14.3715  15.7785  15.8626  16.9447  17.5800  18.4628  19.1819
    19.5104  21.0472

          k = 0.0909 0.4545 0.4545 (  3959 PWs)   bands (ev):

   -68.9996 -38.8425 -35.1124 -35.1117 -35.0631 -15.3123 -15.3108 -14.9825
    13.6954  14.2735  15.6660  15.6961  17.6651  18.0680  18.6424  18.7438
    19.7224  21.2734

          k = 0.1818 0.1818 0.1818 (  3965 PWs)   bands (ev):

   -69.0038 -38.8922 -35.0801 -35.0801 -35.0727 -15.1148 -15.0967 -15.0967
    12.2197  14.9319  14.9319  16.3612  16.3612  16.8493  19.1586  19.1586
    19.5234  20.2777

          k = 0.1818 0.1818 0.2727 (  3955 PWs)   bands (ev):

   -69.0028 -38.8817 -35.0901 -35.0785 -35.0750 -15.2021 -15.0951 -15.0900
    12.8657  15.1435  15.2117  16.2225  16.2274  16.5307  19.0283  19.2372
    19.6588  19.8344

          k = 0.1818 0.1818 0.3636 (  3949 PWs)   bands (ev):

   -69.0019 -38.8720 -35.0999 -35.0771 -35.0764 -15.2910 -15.0838 -15.0838
    13.5887  15.1921  15.3793  16.0867  16.2586  16.4576  18.8911  18.9721
    19.1770  20.4044

          k = 0.1818 0.1818 0.4545 (  3948 PWs)   bands (ev):

   -69.0013 -38.8663 -35.1058 -35.0772 -35.0762 -15.3434 -15.0801 -15.0769
    14.2083  14.8701  15.5690  15.9662  16.3779  16.6431  18.5572  18.8137
    18.9021  20.7772

          k = 0.1818 0.2727 0.2727 (  3946 PWs)   bands (ev):

   -69.0018 -38.8702 -35.0926 -35.0871 -35.0761 -15.1965 -15.1822 -15.0832
    13.4245  15.1729  15.6106  16.0254  16.1069  16.1872  19.0515  19.2391
    19.5571  20.3211

          k = 0.1818 0.2727 0.3636 (  3943 PWs)   bands (ev):

   -69.0009 -38.8596 -35.1015 -35.0897 -35.0757 -15.2771 -15.1780 -15.0746
    13.9623  15.0496  15.7585  15.9106  16.1659  16.2796  18.8150  19.0661
    19.4477  20.6247

          k = 0.1818 0.2727 0.4545 (  3943 PWs)   bands (ev):

   -69.0003 -38.8533 -35.1077 -35.0905 -35.0753 -15.3283 -15.1717 -15.0694
    14.3081  14.8487  15.7295  15.8567  16.2558  16.7386  18.4541  18.9004
    19.3551  20.8497

          k = 0.1818 0.3636 0.3636 (  3961 PWs)   bands (ev):

   -69.0000 -38.8482 -35.1041 -35.1006 -35.0747 -15.2680 -15.2599 -15.0661
    14.1633  14.8359  15.7564  15.8739  16.4699  16.4983  18.6848  18.9247
    19.7161  20.7901

          k = 0.1818 0.3636 0.4545 (  3948 PWs)   bands (ev):

   -68.9994 -38.8414 -35.1096 -35.1031 -35.0741 -15.3144 -15.2562 -15.0610
    14.1999  14.7114  15.7012  15.7500  16.6955  17.1362  18.4005  18.7648
    19.7940  21.0357

          k = 0.1818 0.4545 0.4545 (  3954 PWs)   bands (ev):

   -68.9989 -38.8343 -35.1109 -35.1104 -35.0733 -15.3067 -15.3055 -15.0560
    14.0914  14.6207  15.6130  15.6350  17.3865  17.4980  18.2894  18.4715
    19.9863  21.3308

          k = 0.2727 0.2727 0.2727 (  3941 PWs)   bands (ev):

   -69.0008 -38.8585 -35.0909 -35.0909 -35.0863 -15.1856 -15.1753 -15.1753
    13.9996  15.6266  15.6266  15.7014  15.9048  15.9048  19.0610  19.0610
    20.0336  20.0336

          k = 0.2727 0.2727 0.3636 (  3948 PWs)   bands (ev):

   -68.9999 -38.8477 -35.1014 -35.0893 -35.0887 -15.2655 -15.1691 -15.1690
    14.4922  15.3169  15.6233  15.8072  15.9090  16.1264  18.8040  18.8480
    19.8783  20.5375

          k = 0.2727 0.2727 0.4545 (  3944 PWs)   bands (ev):

   -68.9993 -38.8412 -35.1082 -35.0895 -35.0884 -15.3164 -15.1652 -15.1615
    14.6932  15.0946  15.6091  15.7579  16.0959  16.5706  18.3965  18.7190
    19.8234  20.8837

          k = 0.2727 0.3636 0.3636 (  3953 PWs)   bands (ev):

   -68.9990 -38.8367 -35.1022 -35.1004 -35.0881 -15.2569 -15.2529 -15.1607
    14.7821  15.1847  15.6733  15.7733  16.0105  16.2548  18.6362  18.6404
    20.1871  20.7401

          k = 0.2727 0.3636 0.4545 (  3957 PWs)   bands (ev):

   -68.9984 -38.8301 -35.1086 -35.1015 -35.0875 -15.3055 -15.2487 -15.1557
    14.7564  15.0996  15.6333  15.6927  16.3032  16.6685  18.2965  18.5521
    20.2506  21.0712

          k = 0.2727 0.4545 0.4545 (  3955 PWs)   bands (ev):

   -68.9979 -38.8235 -35.1090 -35.1087 -35.0867 -15.2992 -15.2987 -15.1511
    14.6804  15.0595  15.5663  15.5954  16.8319  16.8579  18.1223  18.3903
    20.4313  21.3685

          k = 0.3636 0.3636 0.3636 (  3954 PWs)   bands (ev):

   -68.9981 -38.8260 -35.1006 -35.1006 -35.1002 -15.2467 -15.2466 -15.2466
    15.1721  15.5307  15.6295  15.6295  16.0058  16.0058  18.4612  18.4612
    20.7458  20.7458

          k = 0.3636 0.3636 0.4545 (  3961 PWs)   bands (ev):

   -68.9975 -38.8197 -35.1077 -35.1002 -35.0995 -15.2972 -15.2428 -15.2406
    15.1707  15.3488  15.6618  15.7938  15.9966  16.3572  18.1997  18.3827
    20.7587  21.1646

          k = 0.3636 0.4545 0.4545 (  3953 PWs)   bands (ev):

   -68.9970 -38.8135 -35.1072 -35.1072 -35.0990 -15.2924 -15.2923 -15.2375
    15.2798  15.4351  15.5718  15.6833  16.2898  16.3405  18.0805  18.2476
    20.9845  21.3983

          k = 0.4545 0.4545 0.4545 (  3960 PWs)   bands (ev):

   -68.9965 -38.8076 -35.1063 -35.1062 -35.1062 -15.2886 -15.2886 -15.2881
    15.5155  15.6629  15.6629  15.9659  15.9659  15.9930  18.0704  18.0704
    21.4153  21.4153

     the Fermi energy is    17.8118 ev

!    total energy              =    -448.58603262 Ry
     estimated scf accuracy    <          6.6E-09 Ry
     smearing contrib. (-TS)   =       0.00004052 Ry
     internal energy E=F+TS    =    -448.58607314 Ry

     The total energy is F=E-TS. E is the sum of the following terms:
     one-electron contribution =    -149.97418718 Ry
     hartree contribution      =      91.15503515 Ry
     xc contribution           =     -52.90498551 Ry
     ewald contribution        =    -260.70786252 Ry
     one-center paw contrib.   =     -76.15407308 Ry

     convergence has been achieved in  30 iterations

     negative rho (up, down):  9.617E-04 0.000E+00

     Forces acting on atoms (cartesian axes, Ry/au):

     atom    1 type  1   force =     0.00000000    0.00000000    0.00000000
     atom    2 type  2   force =     0.00000000    0.00000000    0.00000000

     Total force =     0.000000     Total SCF correction =     0.000000


     Computing stress (Cartesian axis) and pressure


     negative rho (up, down):  9.617E-04 0.000E+00
          total   stress  (Ry/bohr**3)                   (kbar)     P=       53.41
   0.00036306   0.00000000   0.00000000           53.41        0.00        0.00
   0.00000000   0.00036306   0.00000000            0.00       53.41        0.00
   0.00000000   0.00000000   0.00036306            0.00        0.00       53.41


     Writing all to output data dir ./TiFe.save/ :
     XML data file, charge density, pseudopotentials, collected wavefunctions

     init_run     :      1.12s CPU      1.17s WALL (       1 calls)
     electrons    :     33.36s CPU     35.23s WALL (       1 calls)
     forces       :      0.23s CPU      0.26s WALL (       1 calls)
     stress       :      1.39s CPU      1.46s WALL (       1 calls)

     Called by init_run:
     wfcinit      :      0.33s CPU      0.34s WALL (       1 calls)
     potinit      :      0.37s CPU      0.38s WALL (       1 calls)
     hinit0       :      0.26s CPU      0.27s WALL (       1 calls)

     Called by electrons:
     c_bands      :     21.30s CPU     21.79s WALL (      30 calls)
     sum_band     :      6.28s CPU      6.97s WALL (      30 calls)
     v_of_rho     :      0.67s CPU      0.74s WALL (      31 calls)
     newd         :      3.48s CPU      4.05s WALL (      31 calls)
     PAW_pot      :      1.67s CPU      1.71s WALL (      31 calls)
     mix_rho      :      0.08s CPU      0.09s WALL (      30 calls)

     Called by c_bands:
     init_us_2    :      0.52s CPU      0.54s WALL (    3528 calls)
     cegterg      :     20.32s CPU     20.77s WALL (    1680 calls)

     Called by *egterg:
     cdiaghg      :      2.46s CPU      2.51s WALL (    7032 calls)
     h_psi        :     15.06s CPU     15.41s WALL (    7088 calls)
     s_psi        :      0.42s CPU      0.43s WALL (    7088 calls)
     g_psi        :      0.09s CPU      0.09s WALL (    5352 calls)

     Called by h_psi:
     h_psi:calbec :      0.82s CPU      0.84s WALL (    7088 calls)
     vloc_psi     :     13.71s CPU     14.03s WALL (    7088 calls)
     add_vuspsi   :      0.44s CPU      0.45s WALL (    7088 calls)

     General routines
     calbec       :      1.13s CPU      1.16s WALL (    9720 calls)
     fft          :      0.51s CPU      0.60s WALL (     426 calls)
     ffts         :      0.29s CPU      0.29s WALL (      61 calls)
     fftw         :     12.80s CPU     13.09s WALL (  197566 calls)
     interpolate  :      0.31s CPU      0.32s WALL (      31 calls)

     Parallel routines

     PWSCF        :     36.41s CPU     38.62s WALL


   This run was terminated on:   0:41: 3  25Oct2025            

=------------------------------------------------------------------------------=
   JOB DONE.
=------------------------------------------------------------------------------=
