
     Program PWSCF v.7.4 starts on 25Oct2025 at  0:35:34 

     This program is part of the open-source Quantum ESPRESSO suite
     for quantum simulation of materials; please cite
         "P. Giannozzi et al., J. Phys.:Condens. Matter 21 395502 (2009);
         "P. Giannozzi et al., J. Phys.:Condens. Matter 29 465901 (2017);
         "P. Giannozzi et al., J. Chem. Phys. 152 154105 (2020);
          URL http://www.quantum-espresso.org", 
     in publications or presentations arising from this work. More details at
     http://www.quantum-espresso.org/quote

     Parallel version (MPI & OpenMP), running on       8 processor cores
     Number of MPI processes:                 8
     Threads/MPI process:                     1

     MPI processes distributed on     1 nodes
     210588 MiB available memory on the printing compute node when the environment starts

     Reading input from TiFe_1.in

     Current dimensions of program PWSCF are:
     Max number of different atomic species (ntypx) = 10
     Max number of k-points (npk) =  40000
     Max angular momentum in pseudopotentials (lmaxx) =  4
     file Fe.pbe-spn-kjpaw_psl.0.2.1.UPF: wavefunction(s)  3D renormalized

     IMPORTANT: XC functional enforced from input :
     Exchange-correlation= PBE
                           (   1   4   3   4   0   0   0)
     Any further DFT definition will be discarded
     Please, verify this is what you really want

     Message from routine setup:
     using ibrav=0 with symmetry is DISCOURAGED, use correct ibrav instead

     R & G space division:  proc/nbgrp/npool/nimage =       8
     Subspace diagonalization in iterative solution of the eigenvalue problem:
     a serial algorithm will be used


     Parallelization info
     --------------------
     sticks:   dense  smooth     PW     G-vecs:    dense   smooth      PW
     Min         493     139     41                23327     3551     567
     Max         495     140     42                23330     3554     570
     Sum        3953    1117    333               186623    28425    4553

     Using Slab Decomposition



     bravais-lattice index     =            0
     lattice parameter (alat)  =       5.3454  a.u.
     unit-cell volume          =     152.7383 (a.u.)^3
     number of atoms/cell      =            2
     number of atomic types    =            2
     number of electrons       =        28.00
     number of Kohn-Sham states=           18
     kinetic-energy cutoff     =     124.0000  Ry
     charge density cutoff     =    1736.0000  Ry
     scf convergence threshold =      1.0E-08
     mixing beta               =       0.7000
     number of iterations used =            8  plain     mixing
     Exchange-correlation= PBE
                           (   1   4   3   4   0   0   0)

     celldm(1)=   5.345430  celldm(2)=   0.000000  celldm(3)=   0.000000
     celldm(4)=   0.000000  celldm(5)=   0.000000  celldm(6)=   0.000000

     crystal axes: (cart. coord. in units of alat)
               a(1) = (   1.000000   0.000000   0.000000 )  
               a(2) = (   0.000000   1.000000   0.000000 )  
               a(3) = (   0.000000   0.000000   1.000000 )  

     reciprocal axes: (cart. coord. in units 2 pi/alat)
               b(1) = (  1.000000  0.000000  0.000000 )  
               b(2) = (  0.000000  1.000000  0.000000 )  
               b(3) = (  0.000000  0.000000  1.000000 )  


     PseudoPot. # 1 for Fe read from file:
     ../pseudos/Fe.pbe-spn-kjpaw_psl.0.2.1.UPF
     MD5 check sum: e86618425769142926afa95317d90200
     Pseudo is Projector augmented-wave + core cor, Zval = 16.0
     Generated using "atomic" code by A. Dal Corso  v.5.0.99 svn rev. 10869
     Shape of augmentation charge: PSQ
     Using radial grid of 1191 points,  6 beta functions with: 
                l(1) =   0
                l(2) =   0
                l(3) =   1
                l(4) =   1
                l(5) =   2
                l(6) =   2
     Q(r) pseudized with 0 coefficients 


     PseudoPot. # 2 for Ti read from file:
     ../pseudos/ti_pbe_v1.4.uspp.F.UPF
     MD5 check sum: 88a00a6731bd790ddea75d31a80cb452
     Pseudo is Ultrasoft + core correction, Zval = 12.0
     Generated by new atomic code, or converted to UPF format
     Using radial grid of  851 points,  6 beta functions with: 
                l(1) =   0
                l(2) =   0
                l(3) =   1
                l(4) =   1
                l(5) =   2
                l(6) =   2
     Q(r) pseudized with  6 coefficients,  rinner =    1.000   1.000   1.000
                                                       1.000   1.000

     atomic species   valence    mass     pseudopotential
     Fe               16.00    55.84500     Fe( 1.00)
     Ti               12.00    47.86700     Ti( 1.00)

     48 Sym. Ops., with inversion, found



   Cartesian axes

     site n.     atom                  positions (alat units)
         1        Fe     tau(   1) = (   0.5000000   0.5000000   0.5000000  )
         2        Ti     tau(   2) = (   0.0000000   0.0000000   0.0000000  )

     number of k points=    56  Marzari-Vanderbilt smearing, width (Ry)=  0.0050
                       cart. coord. in units 2pi/alat
        k(    1) = (   0.0000000   0.0000000   0.0000000), wk =   0.0015026
        k(    2) = (   0.0000000   0.0000000   0.0909091), wk =   0.0090158
        k(    3) = (   0.0000000   0.0000000   0.1818182), wk =   0.0090158
        k(    4) = (   0.0000000   0.0000000   0.2727273), wk =   0.0090158
        k(    5) = (   0.0000000   0.0000000   0.3636364), wk =   0.0090158
        k(    6) = (   0.0000000   0.0000000   0.4545455), wk =   0.0090158
        k(    7) = (   0.0000000   0.0909091   0.0909091), wk =   0.0180316
        k(    8) = (   0.0000000   0.0909091   0.1818182), wk =   0.0360631
        k(    9) = (   0.0000000   0.0909091   0.2727273), wk =   0.0360631
        k(   10) = (   0.0000000   0.0909091   0.3636364), wk =   0.0360631
        k(   11) = (   0.0000000   0.0909091   0.4545455), wk =   0.0360631
        k(   12) = (   0.0000000   0.1818182   0.1818182), wk =   0.0180316
        k(   13) = (   0.0000000   0.1818182   0.2727273), wk =   0.0360631
        k(   14) = (   0.0000000   0.1818182   0.3636364), wk =   0.0360631
        k(   15) = (   0.0000000   0.1818182   0.4545455), wk =   0.0360631
        k(   16) = (   0.0000000   0.2727273   0.2727273), wk =   0.0180316
        k(   17) = (   0.0000000   0.2727273   0.3636364), wk =   0.0360631
        k(   18) = (   0.0000000   0.2727273   0.4545455), wk =   0.0360631
        k(   19) = (   0.0000000   0.3636364   0.3636364), wk =   0.0180316
        k(   20) = (   0.0000000   0.3636364   0.4545455), wk =   0.0360631
        k(   21) = (   0.0000000   0.4545455   0.4545455), wk =   0.0180316
        k(   22) = (   0.0909091   0.0909091   0.0909091), wk =   0.0120210
        k(   23) = (   0.0909091   0.0909091   0.1818182), wk =   0.0360631
        k(   24) = (   0.0909091   0.0909091   0.2727273), wk =   0.0360631
        k(   25) = (   0.0909091   0.0909091   0.3636364), wk =   0.0360631
        k(   26) = (   0.0909091   0.0909091   0.4545455), wk =   0.0360631
        k(   27) = (   0.0909091   0.1818182   0.1818182), wk =   0.0360631
        k(   28) = (   0.0909091   0.1818182   0.2727273), wk =   0.0721262
        k(   29) = (   0.0909091   0.1818182   0.3636364), wk =   0.0721262
        k(   30) = (   0.0909091   0.1818182   0.4545455), wk =   0.0721262
        k(   31) = (   0.0909091   0.2727273   0.2727273), wk =   0.0360631
        k(   32) = (   0.0909091   0.2727273   0.3636364), wk =   0.0721262
        k(   33) = (   0.0909091   0.2727273   0.4545455), wk =   0.0721262
        k(   34) = (   0.0909091   0.3636364   0.3636364), wk =   0.0360631
        k(   35) = (   0.0909091   0.3636364   0.4545455), wk =   0.0721262
        k(   36) = (   0.0909091   0.4545455   0.4545455), wk =   0.0360631
        k(   37) = (   0.1818182   0.1818182   0.1818182), wk =   0.0120210
        k(   38) = (   0.1818182   0.1818182   0.2727273), wk =   0.0360631
        k(   39) = (   0.1818182   0.1818182   0.3636364), wk =   0.0360631
        k(   40) = (   0.1818182   0.1818182   0.4545455), wk =   0.0360631
        k(   41) = (   0.1818182   0.2727273   0.2727273), wk =   0.0360631
        k(   42) = (   0.1818182   0.2727273   0.3636364), wk =   0.0721262
        k(   43) = (   0.1818182   0.2727273   0.4545455), wk =   0.0721262
        k(   44) = (   0.1818182   0.3636364   0.3636364), wk =   0.0360631
        k(   45) = (   0.1818182   0.3636364   0.4545455), wk =   0.0721262
        k(   46) = (   0.1818182   0.4545455   0.4545455), wk =   0.0360631
        k(   47) = (   0.2727273   0.2727273   0.2727273), wk =   0.0120210
        k(   48) = (   0.2727273   0.2727273   0.3636364), wk =   0.0360631
        k(   49) = (   0.2727273   0.2727273   0.4545455), wk =   0.0360631
        k(   50) = (   0.2727273   0.3636364   0.3636364), wk =   0.0360631
        k(   51) = (   0.2727273   0.3636364   0.4545455), wk =   0.0721262
        k(   52) = (   0.2727273   0.4545455   0.4545455), wk =   0.0360631
        k(   53) = (   0.3636364   0.3636364   0.3636364), wk =   0.0120210
        k(   54) = (   0.3636364   0.3636364   0.4545455), wk =   0.0360631
        k(   55) = (   0.3636364   0.4545455   0.4545455), wk =   0.0360631
        k(   56) = (   0.4545455   0.4545455   0.4545455), wk =   0.0120210

     Dense  grid:   186623 G-vectors     FFT dimensions: (  72,  72,  72)

     Smooth grid:    28425 G-vectors     FFT dimensions: (  40,  40,  40)

     Estimated max dynamical RAM per process >      98.90 MB

     Estimated total dynamical RAM >     791.23 MB

     Check: negative core charge=   -0.000002

     Initial potential from superposition of free atoms

     starting charge      26.9995, renormalised to      28.0000

     negative rho (up, down):  1.324E-03 0.000E+00
     Starting wfcs are   23 randomized atomic wfcs
     Checking if some PAW data can be deallocated... 

     total cpu time spent up to now is        1.7 secs

     per-process dynamical memory:   132.8 Mb

     Self-consistent Calculation

     iteration #  1     ecut=   124.00 Ry     beta= 0.70
     Davidson diagonalization with overlap
     ethr =  1.00E-02,  avg # of iterations =  2.1

     negative rho (up, down):  5.499E-05 0.000E+00

     total cpu time spent up to now is        2.7 secs

     total energy              =    -436.93175344 Ry
     estimated scf accuracy    <      14.96185224 Ry

     iteration #  2     ecut=   124.00 Ry     beta= 0.70
     Davidson diagonalization with overlap
     ethr =  1.00E-02,  avg # of iterations =  6.0

     negative rho (up, down):  7.222E-05 0.000E+00

     total cpu time spent up to now is        4.3 secs

     total energy              =    -448.38868462 Ry
     estimated scf accuracy    <      58.05681597 Ry

     iteration #  3     ecut=   124.00 Ry     beta= 0.70
     Davidson diagonalization with overlap
     ethr =  1.00E-02,  avg # of iterations =  3.0

     negative rho (up, down):  3.150E-04 0.000E+00

     total cpu time spent up to now is        5.5 secs

     total energy              =    -448.44102158 Ry
     estimated scf accuracy    <      14.54628014 Ry

     iteration #  4     ecut=   124.00 Ry     beta= 0.70
     Davidson diagonalization with overlap
     ethr =  1.00E-02,  avg # of iterations =  2.2

     negative rho (up, down):  2.968E-04 0.000E+00

     total cpu time spent up to now is        6.5 secs

     total energy              =    -448.99059421 Ry
     estimated scf accuracy    <       3.60316240 Ry

     iteration #  5     ecut=   124.00 Ry     beta= 0.70
     Davidson diagonalization with overlap
     ethr =  1.00E-02,  avg # of iterations =  1.0

     negative rho (up, down):  4.525E-04 0.000E+00

     total cpu time spent up to now is        7.4 secs

     total energy              =    -448.57808485 Ry
     estimated scf accuracy    <       3.34003834 Ry

     iteration #  6     ecut=   124.00 Ry     beta= 0.70
     Davidson diagonalization with overlap
     ethr =  1.00E-02,  avg # of iterations =  1.1

     negative rho (up, down):  4.665E-04 0.000E+00

     total cpu time spent up to now is        8.3 secs

     total energy              =    -448.70406618 Ry
     estimated scf accuracy    <       0.75159280 Ry

     iteration #  7     ecut=   124.00 Ry     beta= 0.70
     Davidson diagonalization with overlap
     ethr =  2.68E-03,  avg # of iterations =  1.3

     negative rho (up, down):  7.878E-04 0.000E+00

     total cpu time spent up to now is        9.2 secs

     total energy              =    -448.55702644 Ry
     estimated scf accuracy    <       0.83409321 Ry

     iteration #  8     ecut=   124.00 Ry     beta= 0.70
     Davidson diagonalization with overlap
     ethr =  2.68E-03,  avg # of iterations =  2.0

     negative rho (up, down):  1.097E-03 0.000E+00

     total cpu time spent up to now is       10.1 secs

     total energy              =    -448.53457357 Ry
     estimated scf accuracy    <       0.13968842 Ry

     iteration #  9     ecut=   124.00 Ry     beta= 0.70
     Davidson diagonalization with overlap
     ethr =  4.99E-04,  avg # of iterations =  4.7

     negative rho (up, down):  1.083E-03 0.000E+00

     total cpu time spent up to now is       11.3 secs

     total energy              =    -448.61074959 Ry
     estimated scf accuracy    <       0.78030776 Ry

     iteration # 10     ecut=   124.00 Ry     beta= 0.70
     Davidson diagonalization with overlap
     ethr =  4.99E-04,  avg # of iterations =  1.0

     negative rho (up, down):  9.616E-04 0.000E+00

     total cpu time spent up to now is       12.2 secs

     total energy              =    -448.62642296 Ry
     estimated scf accuracy    <       0.70609854 Ry

     iteration # 11     ecut=   124.00 Ry     beta= 0.70
     Davidson diagonalization with overlap
     ethr =  4.99E-04,  avg # of iterations =  1.0

     negative rho (up, down):  7.365E-04 0.000E+00

     total cpu time spent up to now is       13.1 secs

     total energy              =    -448.56596153 Ry
     estimated scf accuracy    <       1.07252107 Ry

     iteration # 12     ecut=   124.00 Ry     beta= 0.70
     Davidson diagonalization with overlap
     ethr =  4.99E-04,  avg # of iterations =  2.0

     negative rho (up, down):  8.075E-04 0.000E+00

     total cpu time spent up to now is       14.0 secs

     total energy              =    -448.52927395 Ry
     estimated scf accuracy    <       0.28806058 Ry

     iteration # 13     ecut=   124.00 Ry     beta= 0.70
     Davidson diagonalization with overlap
     ethr =  4.99E-04,  avg # of iterations =  3.4

     negative rho (up, down):  8.246E-04 0.000E+00

     total cpu time spent up to now is       15.0 secs

     total energy              =    -448.57424781 Ry
     estimated scf accuracy    <       0.14757388 Ry

     iteration # 14     ecut=   124.00 Ry     beta= 0.70
     Davidson diagonalization with overlap
     ethr =  4.99E-04,  avg # of iterations =  1.0

     negative rho (up, down):  9.348E-04 0.000E+00

     total cpu time spent up to now is       15.9 secs

     total energy              =    -448.55986875 Ry
     estimated scf accuracy    <       0.10280026 Ry

     iteration # 15     ecut=   124.00 Ry     beta= 0.70
     Davidson diagonalization with overlap
     ethr =  3.67E-04,  avg # of iterations =  1.4

     negative rho (up, down):  9.604E-04 0.000E+00

     total cpu time spent up to now is       16.8 secs

     total energy              =    -448.56441762 Ry
     estimated scf accuracy    <       0.00423428 Ry

     iteration # 16     ecut=   124.00 Ry     beta= 0.70
     Davidson diagonalization with overlap
     ethr =  1.51E-05,  avg # of iterations =  3.9

     negative rho (up, down):  9.629E-04 0.000E+00

     total cpu time spent up to now is       17.9 secs

     total energy              =    -448.56533532 Ry
     estimated scf accuracy    <       0.00018018 Ry

     iteration # 17     ecut=   124.00 Ry     beta= 0.70
     Davidson diagonalization with overlap
     ethr =  6.43E-07,  avg # of iterations =  4.8

     negative rho (up, down):  9.571E-04 0.000E+00

     total cpu time spent up to now is       19.1 secs

     total energy              =    -448.56535816 Ry
     estimated scf accuracy    <       0.00026833 Ry

     iteration # 18     ecut=   124.00 Ry     beta= 0.70
     Davidson diagonalization with overlap
     ethr =  6.43E-07,  avg # of iterations =  2.0

     negative rho (up, down):  9.579E-04 0.000E+00

     total cpu time spent up to now is       20.1 secs

     total energy              =    -448.56537785 Ry
     estimated scf accuracy    <       0.00001938 Ry

     iteration # 19     ecut=   124.00 Ry     beta= 0.70
     Davidson diagonalization with overlap
     ethr =  6.92E-08,  avg # of iterations =  2.1

     negative rho (up, down):  9.581E-04 0.000E+00

     total cpu time spent up to now is       21.1 secs

     total energy              =    -448.56537960 Ry
     estimated scf accuracy    <       0.00002035 Ry

     iteration # 20     ecut=   124.00 Ry     beta= 0.70
     Davidson diagonalization with overlap
     ethr =  6.92E-08,  avg # of iterations =  1.0

     negative rho (up, down):  9.577E-04 0.000E+00

     total cpu time spent up to now is       21.9 secs

     total energy              =    -448.56537854 Ry
     estimated scf accuracy    <       0.00000955 Ry

     iteration # 21     ecut=   124.00 Ry     beta= 0.70
     Davidson diagonalization with overlap
     ethr =  3.41E-08,  avg # of iterations =  2.4

     negative rho (up, down):  9.577E-04 0.000E+00

     total cpu time spent up to now is       22.9 secs

     total energy              =    -448.56537928 Ry
     estimated scf accuracy    <       0.00000019 Ry

     iteration # 22     ecut=   124.00 Ry     beta= 0.70
     Davidson diagonalization with overlap
     ethr =  6.82E-10,  avg # of iterations =  4.5

     negative rho (up, down):  9.578E-04 0.000E+00

     total cpu time spent up to now is       24.1 secs

     total energy              =    -448.56537935 Ry
     estimated scf accuracy    <       0.00000002 Ry

     iteration # 23     ecut=   124.00 Ry     beta= 0.70
     Davidson diagonalization with overlap
     ethr =  7.92E-11,  avg # of iterations =  3.7

     negative rho (up, down):  9.577E-04 0.000E+00

     total cpu time spent up to now is       25.2 secs

     total energy              =    -448.56537936 Ry
     estimated scf accuracy    <       0.00000002 Ry

     iteration # 24     ecut=   124.00 Ry     beta= 0.70
     Davidson diagonalization with overlap
     ethr =  7.35E-11,  avg # of iterations =  1.0

     negative rho (up, down):  9.577E-04 0.000E+00

     total cpu time spent up to now is       26.1 secs

     End of self-consistent calculation

          k = 0.0000 0.0000 0.0000 (  3575 PWs)   bands (ev):

   -66.8223 -36.4500 -32.8892 -32.8892 -32.8892 -12.5003 -12.5003 -12.5003
    12.2909  15.6732  15.6732  18.9693  18.9693  18.9693  21.6556  21.6556
    23.9235  23.9235

          k = 0.0000 0.0000 0.0909 (  3595 PWs)   bands (ev):

   -66.8218 -36.4473 -32.8923 -32.8886 -32.8886 -12.5442 -12.4980 -12.4980
    12.4837  15.7675  15.7888  18.9553  18.9553  19.0133  21.5267  21.7057
    23.6260  23.6260

          k = 0.0000 0.0000 0.1818 (  3563 PWs)   bands (ev):

   -66.8205 -36.4401 -32.9006 -32.8868 -32.8868 -12.6607 -12.4918 -12.4918
    13.0389  16.0444  16.0949  18.9242  18.9242  19.1370  21.1555  21.8254
    22.9381  22.9381

          k = 0.0000 0.0000 0.2727 (  3563 PWs)   bands (ev):

   -66.8187 -36.4308 -32.9111 -32.8845 -32.8845 -12.8107 -12.4837 -12.4837
    13.8885  16.4698  16.4818  18.9011  18.9011  19.3132  20.5911  21.9021
    22.1791  22.1791

          k = 0.0000 0.0000 0.3636 (  3547 PWs)   bands (ev):

   -66.8171 -36.4223 -32.9207 -32.8823 -32.8823 -12.9461 -12.4763 -12.4763
    14.9108  16.7139  17.0278  18.9040  18.9040  19.4935  19.9253  21.5562
    21.5562  21.7465

          k = 0.0000 0.0000 0.4545 (  3551 PWs)   bands (ev):

   -66.8162 -36.4173 -32.9262 -32.8811 -32.8811 -13.0255 -12.4719 -12.4719
    15.8932  16.5838  17.5245  18.9219  18.9219  19.3560  19.6116  21.2015
    21.2015  21.4288

          k = 0.0000 0.0909 0.0909 (  3587 PWs)   bands (ev):

   -66.8213 -36.4443 -32.8948 -32.8891 -32.8879 -12.5470 -12.5358 -12.4955
    12.6717  15.8648  15.8971  18.8554  18.9323  19.1302  21.5091  21.6702
    23.2978  23.3313

          k = 0.0000 0.0909 0.1818 (  3582 PWs)   bands (ev):

   -66.8200 -36.4363 -32.9027 -32.8889 -32.8862 -12.6572 -12.5331 -12.4890
    13.2119  16.1223  16.2076  18.7607  18.8775  19.2717  21.2235  21.7750
    22.6650  22.6948

          k = 0.0000 0.0909 0.2727 (  3578 PWs)   bands (ev):

   -66.8182 -36.4258 -32.9134 -32.8882 -32.8839 -12.8052 -12.5236 -12.4803
    14.0333  16.4941  16.6163  18.7130  18.8182  19.3732  20.7424  21.7692
    22.0852  22.1072

          k = 0.0000 0.0909 0.3636 (  3561 PWs)   bands (ev):

   -66.8166 -36.4163 -32.9230 -32.8876 -32.8818 -12.9389 -12.5147 -12.4724
    15.0110  16.7535  17.0892  18.7278  18.7636  19.3762  20.2002  21.2839
    21.7181  21.9719

          k = 0.0000 0.0909 0.4545 (  3545 PWs)   bands (ev):

   -66.8157 -36.4107 -32.9287 -32.8872 -32.8805 -13.0173 -12.5094 -12.4677
    15.9359  16.6176  17.5307  18.6791  18.7825  19.3013  19.8226  20.9564
    21.5656  21.7804

          k = 0.0000 0.1818 0.1818 (  3589 PWs)   bands (ev):

   -66.8187 -36.4260 -32.9095 -32.8934 -32.8845 -12.6610 -12.6298 -12.4813
    13.7027  16.3029  16.5457  18.5523  18.7743  19.3694  21.2906  21.7232
    22.0683  22.3083

          k = 0.0000 0.1818 0.2727 (  3573 PWs)   bands (ev):

   -66.8169 -36.4125 -32.9197 -32.8978 -32.8823 -12.7909 -12.6290 -12.4712
    14.4265  16.5266  17.0071  18.4100  18.6845  19.2808  21.0739  21.4562
    21.9161  22.1000

          k = 0.0000 0.1818 0.3636 (  3563 PWs)   bands (ev):

   -66.8153 -36.4001 -32.9295 -32.9014 -32.8803 -12.9195 -12.6169 -12.4619
    15.2395  16.6591  17.4612  18.3717  18.6728  19.0268  20.7132  21.0738
    22.1030  22.1316

          k = 0.0000 0.1818 0.4545 (  3564 PWs)   bands (ev):

   -66.8144 -36.3928 -32.9352 -32.9035 -32.8791 -12.9953 -12.6094 -12.4564
    15.9344  16.5450  17.7681  18.4413  18.7403  18.7578  20.5175  20.8004
    22.1737  22.2535

          k = 0.0000 0.2727 0.2727 (  3577 PWs)   bands (ev):

   -66.8152 -36.3949 -32.9289 -32.9095 -32.8803 -12.7868 -12.7504 -12.4592
    14.9465  16.5253  17.5524  18.1631  18.6708  18.9624  21.2021  21.3442
    21.8149  22.3089

          k = 0.0000 0.2727 0.3636 (  3565 PWs)   bands (ev):

   -66.8136 -36.3788 -32.9382 -32.9193 -32.8784 -12.8945 -12.7484 -12.4482
    15.4262  16.4472  18.0356  18.0864  18.5746  18.9074  21.0028  21.3263
    22.0391  22.6406

          k = 0.0000 0.2727 0.4545 (  3563 PWs)   bands (ev):

   -66.8127 -36.3691 -32.9440 -32.9248 -32.8772 -12.9664 -12.7383 -12.4416
    15.7358  16.3222  18.0558  18.2585  18.3831  19.3539  20.7377  21.2623
    22.3399  22.9380

          k = 0.0000 0.3636 0.3636 (  3556 PWs)   bands (ev):

   -66.8121 -36.3590 -32.9468 -32.9352 -32.8766 -12.8798 -12.8588 -12.4355
    15.4804  16.2348  17.8157  18.1630  18.8003  19.4251  21.1855  21.7440
    21.8683  23.1213

          k = 0.0000 0.3636 0.4545 (  3557 PWs)   bands (ev):

   -66.8112 -36.3472 -32.9523 -32.9442 -32.8755 -12.9398 -12.8550 -12.4279
    15.4694  16.1061  17.7567  17.8776  19.2423  20.1621  20.9295  21.8284
    22.1526  23.4823

          k = 0.0000 0.4545 0.4545 (  3566 PWs)   bands (ev):

   -66.8102 -36.3341 -32.9574 -32.9558 -32.8745 -12.9251 -12.9222 -12.4198
    15.3005  15.9814  17.6143  17.6552  20.0132  20.6095  21.4514  21.6668
    22.1375  23.8049

          k = 0.0909 0.0909 0.0909 (  3596 PWs)   bands (ev):

   -66.8208 -36.4410 -32.8941 -32.8941 -32.8863 -12.5485 -12.5334 -12.5334
    12.8559  15.9820  15.9820  18.8298  18.8298  19.2262  21.5735  21.5735
    22.8068  23.6024

          k = 0.0909 0.0909 0.1818 (  3583 PWs)   bands (ev):

   -66.8195 -36.4322 -32.9035 -32.8922 -32.8859 -12.6536 -12.5330 -12.5271
    13.3836  16.2294  16.2900  18.6995  18.7625  19.3287  21.2952  21.7284
    22.2501  22.9130

          k = 0.0909 0.0909 0.2727 (  3575 PWs)   bands (ev):

   -66.8178 -36.4208 -32.9149 -32.8898 -32.8862 -12.7998 -12.5214 -12.5189
    14.1813  16.6144  16.6563  18.6365  18.6718  19.3235  20.8774  21.6928
    22.0373  22.1685

          k = 0.0909 0.0909 0.3636 (  3571 PWs)   bands (ev):

   -66.8162 -36.4104 -32.9250 -32.8876 -32.8866 -12.9320 -12.5113 -12.5105
    15.1209  16.8608  17.0819  18.5586  18.6838  19.2143  20.4163  21.3935
    21.5752  22.1830

          k = 0.0909 0.0909 0.4545 (  3552 PWs)   bands (ev):

   -66.8152 -36.4042 -32.9308 -32.8869 -32.8863 -13.0096 -12.5068 -12.5040
    15.9988  16.6868  17.4924  18.4140  18.8354  19.1014  20.0919  21.0981
    21.2482  22.3251

          k = 0.0909 0.1818 0.1818 (  3575 PWs)   bands (ev):

   -66.8182 -36.4215 -32.9088 -32.8967 -32.8864 -12.6559 -12.6273 -12.5216
    13.8698  16.4303  16.6024  18.5102  18.6398  19.2914  21.3759  21.6883
    21.9262  22.5786

          k = 0.0909 0.1818 0.2727 (  3574 PWs)   bands (ev):

   -66.8165 -36.4073 -32.9197 -32.8991 -32.8865 -12.7857 -12.6255 -12.5108
    14.5833  16.6666  17.0303  18.3616  18.5389  19.0736  21.1859  21.6029
    21.9499  22.1803

          k = 0.0909 0.1818 0.3636 (  3569 PWs)   bands (ev):

   -66.8149 -36.3944 -32.9304 -32.9013 -32.8858 -12.9135 -12.6132 -12.5006
    15.3767  16.8103  17.4024  18.2845  18.5499  18.8507  20.8924  21.2170
    21.8064  22.5189

          k = 0.0909 0.1818 0.4545 (  3558 PWs)   bands (ev):

   -66.8139 -36.3867 -32.9366 -32.9029 -32.8851 -12.9888 -12.6058 -12.4945
    16.0483  16.6746  17.6354  18.2282  18.6503  18.8275  20.6926  20.8920
    21.5808  22.9977

          k = 0.0909 0.2727 0.2727 (  3555 PWs)   bands (ev):

   -66.8147 -36.3896 -32.9281 -32.9106 -32.8855 -12.7808 -12.7479 -12.4985
    15.1129  16.6716  17.5618  18.1218  18.5039  18.7164  21.3411  21.5217
    21.7965  22.4822

          k = 0.0909 0.2727 0.3636 (  3563 PWs)   bands (ev):

   -66.8132 -36.3733 -32.9379 -32.9195 -32.8841 -12.8896 -12.7450 -12.4871
    15.5887  16.5941  17.9595  18.0362  18.4535  18.7351  21.1008  21.4297
    21.8905  22.9791

          k = 0.0909 0.2727 0.4545 (  3554 PWs)   bands (ev):

   -66.8122 -36.3636 -32.9445 -32.9241 -32.8832 -12.9615 -12.7352 -12.4802
    15.8805  16.4673  17.9586  18.0428  18.4568  19.2312  20.7857  21.3826
    21.8282  23.5427

          k = 0.0909 0.3636 0.3636 (  3562 PWs)   bands (ev):

   -66.8116 -36.3538 -32.9459 -32.9354 -32.8824 -12.8753 -12.8565 -12.4746
    15.6427  16.3815  17.7828  18.0620  18.7546  19.2206  21.1231  21.7267
    21.8581  23.5048

          k = 0.0909 0.3636 0.4545 (  3547 PWs)   bands (ev):

   -66.8107 -36.3422 -32.9518 -32.9436 -32.8814 -12.9364 -12.8523 -12.4671
    15.6214  16.2554  17.7227  17.8219  19.1659  19.9595  20.8621  21.6978
    21.9718  23.7549

          k = 0.0909 0.4545 0.4545 (  3564 PWs)   bands (ev):

   -66.8098 -36.3293 -32.9565 -32.9550 -32.8803 -12.9226 -12.9200 -12.4593
    15.4544  16.1320  17.5921  17.6280  19.9583  20.4845  21.0984  21.2470
    22.2227  24.0102

          k = 0.1818 0.1818 0.1818 (  3590 PWs)   bands (ev):

   -66.8169 -36.4094 -32.9068 -32.9068 -32.8905 -12.6503 -12.6209 -12.6209
    14.3393  16.7633  16.7633  18.3990  18.3990  18.9875  21.5852  21.5852
    22.0049  22.8656

          k = 0.1818 0.1818 0.2727 (  3573 PWs)   bands (ev):

   -66.8152 -36.3935 -32.9205 -32.9042 -32.8952 -12.7721 -12.6194 -12.6124
    15.0123  16.9996  17.1301  18.2450  18.2525  18.6140  21.4279  21.7083
    22.1503  22.3734

          k = 0.1818 0.1818 0.3636 (  3557 PWs)   bands (ev):

   -66.8136 -36.3789 -32.9331 -32.9018 -32.8995 -12.8975 -12.6046 -12.6023
    15.7202  17.1835  17.2605  18.1032  18.3097  18.5278  21.2595  21.4407
    21.5953  23.0420

          k = 0.1818 0.1818 0.4545 (  3547 PWs)   bands (ev):

   -66.8126 -36.3703 -32.9405 -32.9021 -32.9004 -12.9713 -12.5999 -12.5920
    16.2736  16.8977  17.4619  17.9838  18.4632  18.7851  20.9847  21.1545
    21.2872  23.4415

          k = 0.1818 0.2727 0.2727 (  3560 PWs)   bands (ev):

   -66.8135 -36.3753 -32.9259 -32.9143 -32.8990 -12.7645 -12.7415 -12.6028
    15.5750  17.0684  17.5803  18.0185  18.1275  18.2248  21.4872  21.7128
    22.0151  22.9475

          k = 0.1818 0.2727 0.3636 (  3562 PWs)   bands (ev):

   -66.8119 -36.3586 -32.9375 -32.9198 -32.8994 -12.8767 -12.7360 -12.5905
    16.0386  16.9758  17.7242  17.9036  18.2405  18.3649  21.2324  21.5237
    21.8868  23.2549

          k = 0.1818 0.2727 0.4545 (  3553 PWs)   bands (ev):

   -66.8110 -36.3486 -32.9457 -32.9224 -32.8991 -12.9485 -12.7269 -12.5830
    16.2681  16.8161  17.6660  17.8586  18.3731  18.9431  20.8490  21.3229
    21.7747  23.5227

          k = 0.1818 0.3636 0.3636 (  3559 PWs)   bands (ev):

   -66.8104 -36.3398 -32.9435 -32.9357 -32.8980 -12.8633 -12.8502 -12.5784
    16.1045  16.7614  17.7023  17.8505  18.6100  18.7067  21.0815  21.3843
    22.1996  23.4430

          k = 0.1818 0.3636 0.4545 (  3553 PWs)   bands (ev):

   -66.8094 -36.3285 -32.9507 -32.9417 -32.8971 -12.9274 -12.8452 -12.5712
    16.0514  16.6412  17.6415  17.7087  18.9040  19.4326  20.7842  21.1891
    22.2916  23.7317

          k = 0.1818 0.4545 0.4545 (  3559 PWs)   bands (ev):

   -66.8085 -36.3166 -32.9540 -32.9529 -32.8959 -12.9157 -12.9139 -12.5641
    15.8944  16.5314  17.5418  17.5698  19.6782  19.8554  20.6718  20.8545
    22.5217  24.0696

          k = 0.2727 0.2727 0.2727 (  3563 PWs)   bands (ev):

   -66.8118 -36.3566 -32.9231 -32.9231 -32.9126 -12.7477 -12.7330 -12.7330
    16.1920  17.5835  17.5835  17.6669  17.9032  17.9032  21.5114  21.5114
    22.5622  22.5622

          k = 0.2727 0.2727 0.3636 (  3560 PWs)   bands (ev):

   -66.8102 -36.3392 -32.9379 -32.9204 -32.9184 -12.8600 -12.7251 -12.7227
    16.6051  17.2670  17.5567  17.8221  17.9415  18.1909  21.2365  21.2616
    22.3793  23.1490

          k = 0.2727 0.2727 0.4545 (  3553 PWs)   bands (ev):

   -66.8093 -36.3289 -32.9475 -32.9210 -32.9189 -12.9314 -12.7205 -12.7111
    16.6586  17.0622  17.5266  17.7841  18.2167  18.7367  20.7840  21.1090
    22.3150  23.5583

          k = 0.2727 0.3636 0.3636 (  3560 PWs)   bands (ev):

   -66.8087 -36.3213 -32.9404 -32.9363 -32.9184 -12.8476 -12.8420 -12.7125
    16.7661  17.1554  17.6194  17.7759  18.1217  18.3673  21.0266  21.0463
    22.7405  23.3814

          k = 0.2727 0.3636 0.4545 (  3562 PWs)   bands (ev):

   -66.8078 -36.3106 -32.9493 -32.9390 -32.9176 -12.9157 -12.8359 -12.7055
    16.6535  17.0635  17.5741  17.6876  18.4734  18.8678  20.6596  20.9299
    22.8151  23.7699

          k = 0.2727 0.4545 0.4545 (  3549 PWs)   bands (ev):

   -66.8069 -36.2998 -32.9507 -32.9501 -32.9162 -12.9068 -12.9060 -12.6995
    16.5464  17.0285  17.5059  17.5496  19.0748  19.0847  20.4512  20.7554
    23.0301  24.1129

          k = 0.3636 0.3636 0.3636 (  3554 PWs)   bands (ev):

   -66.8072 -36.3043 -32.9375 -32.9375 -32.9364 -12.8344 -12.8344 -12.8324
    17.0722  17.5859  17.5859  17.7157  18.0762  18.0762  20.8320  20.8320
    23.3874  23.3874

          k = 0.3636 0.3636 0.4545 (  3555 PWs)   bands (ev):

   -66.8063 -36.2941 -32.9482 -32.9371 -32.9358 -12.9049 -12.8299 -12.8244
    17.0760  17.3171  17.6408  17.8204  18.1477  18.4912  20.5395  20.7383
    23.4024  23.8772

          k = 0.3636 0.4545 0.4545 (  3546 PWs)   bands (ev):

   -66.8054 -36.2843 -32.9477 -32.9476 -32.9349 -12.8986 -12.8985 -12.8219
    17.2030  17.4312  17.5374  17.7019  18.4326  18.4737  20.3980  20.5887
    23.6674  24.1482

          k = 0.4545 0.4545 0.4545 (  3536 PWs)   bands (ev):

   -66.8045 -36.2750 -32.9461 -32.9459 -32.9459 -12.8943 -12.8943 -12.8931
    17.4913  17.6822  17.6822  18.0063  18.0063  18.0816  20.3857  20.3857
    24.1685  24.1685

     the Fermi energy is    20.1268 ev

!    total energy              =    -448.56537935 Ry
     estimated scf accuracy    <          3.9E-09 Ry
     smearing contrib. (-TS)   =      -0.00000719 Ry
     internal energy E=F+TS    =    -448.56537216 Ry

     The total energy is F=E-TS. E is the sum of the following terms:
     one-electron contribution =    -135.87969284 Ry
     hartree contribution      =      86.50257868 Ry
     xc contribution           =     -53.10767045 Ry
     ewald contribution        =    -269.92445339 Ry
     one-center paw contrib.   =     -76.15613416 Ry

     convergence has been achieved in  24 iterations

     negative rho (up, down):  9.577E-04 0.000E+00

     Forces acting on atoms (cartesian axes, Ry/au):

     atom    1 type  1   force =     0.00000000    0.00000000    0.00000000
     atom    2 type  2   force =     0.00000000    0.00000000    0.00000000

     Total force =     0.000000     Total SCF correction =     0.000000


     Computing stress (Cartesian axis) and pressure


     negative rho (up, down):  9.577E-04 0.000E+00
          total   stress  (Ry/bohr**3)                   (kbar)     P=      327.49
   0.00222623   0.00000000   0.00000000          327.49        0.00        0.00
   0.00000000   0.00222623   0.00000000            0.00      327.49        0.00
   0.00000000   0.00000000   0.00222623            0.00        0.00      327.49


     Writing all to output data dir ./TiFe.save/ :
     XML data file, charge density, pseudopotentials, collected wavefunctions

     init_run     :      1.46s CPU      1.51s WALL (       1 calls)
     electrons    :     22.89s CPU     24.39s WALL (       1 calls)
     forces       :      0.21s CPU      0.23s WALL (       1 calls)
     stress       :      1.24s CPU      1.31s WALL (       1 calls)

     Called by init_run:
     wfcinit      :      0.31s CPU      0.32s WALL (       1 calls)
     potinit      :      0.36s CPU      0.37s WALL (       1 calls)
     hinit0       :      0.64s CPU      0.65s WALL (       1 calls)

     Called by electrons:
     c_bands      :     13.90s CPU     14.24s WALL (      24 calls)
     sum_band     :      4.70s CPU      5.23s WALL (      24 calls)
     v_of_rho     :      0.44s CPU      0.48s WALL (      25 calls)
     newd         :      2.53s CPU      2.97s WALL (      25 calls)
     PAW_pot      :      1.38s CPU      1.54s WALL (      25 calls)
     mix_rho      :      0.05s CPU      0.05s WALL (      24 calls)

     Called by c_bands:
     init_us_2    :      0.39s CPU      0.41s WALL (    2856 calls)
     cegterg      :     13.21s CPU     13.51s WALL (    1344 calls)

     Called by *egterg:
     cdiaghg      :      1.59s CPU      1.62s WALL (    4629 calls)
     h_psi        :     10.09s CPU     10.33s WALL (    4685 calls)
     s_psi        :      0.26s CPU      0.27s WALL (    4685 calls)
     g_psi        :      0.05s CPU      0.05s WALL (    3285 calls)

     Called by h_psi:
     h_psi:calbec :      0.53s CPU      0.54s WALL (    4685 calls)
     vloc_psi     :      9.22s CPU      9.45s WALL (    4685 calls)
     add_vuspsi   :      0.27s CPU      0.28s WALL (    4685 calls)

     General routines
     calbec       :      0.78s CPU      0.80s WALL (    6981 calls)
     fft          :      0.75s CPU      0.81s WALL (     348 calls)
     ffts         :      0.28s CPU      0.29s WALL (      49 calls)
     fftw         :      8.97s CPU      9.18s WALL (  142376 calls)
     interpolate  :      0.30s CPU      0.31s WALL (      25 calls)

     Parallel routines

     PWSCF        :     26.10s CPU     27.89s WALL


   This run was terminated on:   0:36: 2  25Oct2025            

=------------------------------------------------------------------------------=
   JOB DONE.
=------------------------------------------------------------------------------=
