
     Program PWSCF v.7.4 starts on 25Oct2025 at  0:47:54 

     This program is part of the open-source Quantum ESPRESSO suite
     for quantum simulation of materials; please cite
         "P. Giannozzi et al., J. Phys.:Condens. Matter 21 395502 (2009);
         "P. Giannozzi et al., J. Phys.:Condens. Matter 29 465901 (2017);
         "P. Giannozzi et al., J. Chem. Phys. 152 154105 (2020);
          URL http://www.quantum-espresso.org", 
     in publications or presentations arising from this work. More details at
     http://www.quantum-espresso.org/quote

     Parallel version (MPI & OpenMP), running on       8 processor cores
     Number of MPI processes:                 8
     Threads/MPI process:                     1

     MPI processes distributed on     1 nodes
     210199 MiB available memory on the printing compute node when the environment starts

     Reading input from TiFe_20.in

     Current dimensions of program PWSCF are:
     Max number of different atomic species (ntypx) = 10
     Max number of k-points (npk) =  40000
     Max angular momentum in pseudopotentials (lmaxx) =  4
     file Fe.pbe-spn-kjpaw_psl.0.2.1.UPF: wavefunction(s)  3D renormalized

     IMPORTANT: XC functional enforced from input :
     Exchange-correlation= PBE
                           (   1   4   3   4   0   0   0)
     Any further DFT definition will be discarded
     Please, verify this is what you really want

     Message from routine setup:
     using ibrav=0 with symmetry is DISCOURAGED, use correct ibrav instead

     R & G space division:  proc/nbgrp/npool/nimage =       8
     Subspace diagonalization in iterative solution of the eigenvalue problem:
     a serial algorithm will be used


     Parallelization info
     --------------------
     sticks:   dense  smooth     PW     G-vecs:    dense   smooth      PW
     Min         561     160     46                28377     4312     680
     Max         562     161     47                28380     4315     683
     Sum        4493    1281    373               227023    34505    5449

     Using Slab Decomposition



     bravais-lattice index     =            0
     lattice parameter (alat)  =       5.7045  a.u.
     unit-cell volume          =     185.6299 (a.u.)^3
     number of atoms/cell      =            2
     number of atomic types    =            2
     number of electrons       =        28.00
     number of Kohn-Sham states=           18
     kinetic-energy cutoff     =     124.0000  Ry
     charge density cutoff     =    1736.0000  Ry
     scf convergence threshold =      1.0E-08
     mixing beta               =       0.7000
     number of iterations used =            8  plain     mixing
     Exchange-correlation= PBE
                           (   1   4   3   4   0   0   0)

     celldm(1)=   5.704478  celldm(2)=   0.000000  celldm(3)=   0.000000
     celldm(4)=   0.000000  celldm(5)=   0.000000  celldm(6)=   0.000000

     crystal axes: (cart. coord. in units of alat)
               a(1) = (   1.000000   0.000000   0.000000 )  
               a(2) = (   0.000000   1.000000   0.000000 )  
               a(3) = (   0.000000   0.000000   1.000000 )  

     reciprocal axes: (cart. coord. in units 2 pi/alat)
               b(1) = (  1.000000  0.000000  0.000000 )  
               b(2) = (  0.000000  1.000000  0.000000 )  
               b(3) = (  0.000000  0.000000  1.000000 )  


     PseudoPot. # 1 for Fe read from file:
     ../pseudos/Fe.pbe-spn-kjpaw_psl.0.2.1.UPF
     MD5 check sum: e86618425769142926afa95317d90200
     Pseudo is Projector augmented-wave + core cor, Zval = 16.0
     Generated using "atomic" code by A. Dal Corso  v.5.0.99 svn rev. 10869
     Shape of augmentation charge: PSQ
     Using radial grid of 1191 points,  6 beta functions with: 
                l(1) =   0
                l(2) =   0
                l(3) =   1
                l(4) =   1
                l(5) =   2
                l(6) =   2
     Q(r) pseudized with 0 coefficients 


     PseudoPot. # 2 for Ti read from file:
     ../pseudos/ti_pbe_v1.4.uspp.F.UPF
     MD5 check sum: 88a00a6731bd790ddea75d31a80cb452
     Pseudo is Ultrasoft + core correction, Zval = 12.0
     Generated by new atomic code, or converted to UPF format
     Using radial grid of  851 points,  6 beta functions with: 
                l(1) =   0
                l(2) =   0
                l(3) =   1
                l(4) =   1
                l(5) =   2
                l(6) =   2
     Q(r) pseudized with  6 coefficients,  rinner =    1.000   1.000   1.000
                                                       1.000   1.000

     atomic species   valence    mass     pseudopotential
     Fe               16.00    55.84500     Fe( 1.00)
     Ti               12.00    47.86700     Ti( 1.00)

     48 Sym. Ops., with inversion, found



   Cartesian axes

     site n.     atom                  positions (alat units)
         1        Fe     tau(   1) = (   0.5000000   0.5000000   0.5000000  )
         2        Ti     tau(   2) = (   0.0000000   0.0000000   0.0000000  )

     number of k points=    56  Marzari-Vanderbilt smearing, width (Ry)=  0.0050
                       cart. coord. in units 2pi/alat
        k(    1) = (   0.0000000   0.0000000   0.0000000), wk =   0.0015026
        k(    2) = (   0.0000000   0.0000000   0.0909091), wk =   0.0090158
        k(    3) = (   0.0000000   0.0000000   0.1818182), wk =   0.0090158
        k(    4) = (   0.0000000   0.0000000   0.2727273), wk =   0.0090158
        k(    5) = (   0.0000000   0.0000000   0.3636364), wk =   0.0090158
        k(    6) = (   0.0000000   0.0000000   0.4545455), wk =   0.0090158
        k(    7) = (   0.0000000   0.0909091   0.0909091), wk =   0.0180316
        k(    8) = (   0.0000000   0.0909091   0.1818182), wk =   0.0360631
        k(    9) = (   0.0000000   0.0909091   0.2727273), wk =   0.0360631
        k(   10) = (   0.0000000   0.0909091   0.3636364), wk =   0.0360631
        k(   11) = (   0.0000000   0.0909091   0.4545455), wk =   0.0360631
        k(   12) = (   0.0000000   0.1818182   0.1818182), wk =   0.0180316
        k(   13) = (   0.0000000   0.1818182   0.2727273), wk =   0.0360631
        k(   14) = (   0.0000000   0.1818182   0.3636364), wk =   0.0360631
        k(   15) = (   0.0000000   0.1818182   0.4545455), wk =   0.0360631
        k(   16) = (   0.0000000   0.2727273   0.2727273), wk =   0.0180316
        k(   17) = (   0.0000000   0.2727273   0.3636364), wk =   0.0360631
        k(   18) = (   0.0000000   0.2727273   0.4545455), wk =   0.0360631
        k(   19) = (   0.0000000   0.3636364   0.3636364), wk =   0.0180316
        k(   20) = (   0.0000000   0.3636364   0.4545455), wk =   0.0360631
        k(   21) = (   0.0000000   0.4545455   0.4545455), wk =   0.0180316
        k(   22) = (   0.0909091   0.0909091   0.0909091), wk =   0.0120210
        k(   23) = (   0.0909091   0.0909091   0.1818182), wk =   0.0360631
        k(   24) = (   0.0909091   0.0909091   0.2727273), wk =   0.0360631
        k(   25) = (   0.0909091   0.0909091   0.3636364), wk =   0.0360631
        k(   26) = (   0.0909091   0.0909091   0.4545455), wk =   0.0360631
        k(   27) = (   0.0909091   0.1818182   0.1818182), wk =   0.0360631
        k(   28) = (   0.0909091   0.1818182   0.2727273), wk =   0.0721262
        k(   29) = (   0.0909091   0.1818182   0.3636364), wk =   0.0721262
        k(   30) = (   0.0909091   0.1818182   0.4545455), wk =   0.0721262
        k(   31) = (   0.0909091   0.2727273   0.2727273), wk =   0.0360631
        k(   32) = (   0.0909091   0.2727273   0.3636364), wk =   0.0721262
        k(   33) = (   0.0909091   0.2727273   0.4545455), wk =   0.0721262
        k(   34) = (   0.0909091   0.3636364   0.3636364), wk =   0.0360631
        k(   35) = (   0.0909091   0.3636364   0.4545455), wk =   0.0721262
        k(   36) = (   0.0909091   0.4545455   0.4545455), wk =   0.0360631
        k(   37) = (   0.1818182   0.1818182   0.1818182), wk =   0.0120210
        k(   38) = (   0.1818182   0.1818182   0.2727273), wk =   0.0360631
        k(   39) = (   0.1818182   0.1818182   0.3636364), wk =   0.0360631
        k(   40) = (   0.1818182   0.1818182   0.4545455), wk =   0.0360631
        k(   41) = (   0.1818182   0.2727273   0.2727273), wk =   0.0360631
        k(   42) = (   0.1818182   0.2727273   0.3636364), wk =   0.0721262
        k(   43) = (   0.1818182   0.2727273   0.4545455), wk =   0.0721262
        k(   44) = (   0.1818182   0.3636364   0.3636364), wk =   0.0360631
        k(   45) = (   0.1818182   0.3636364   0.4545455), wk =   0.0721262
        k(   46) = (   0.1818182   0.4545455   0.4545455), wk =   0.0360631
        k(   47) = (   0.2727273   0.2727273   0.2727273), wk =   0.0120210
        k(   48) = (   0.2727273   0.2727273   0.3636364), wk =   0.0360631
        k(   49) = (   0.2727273   0.2727273   0.4545455), wk =   0.0360631
        k(   50) = (   0.2727273   0.3636364   0.3636364), wk =   0.0360631
        k(   51) = (   0.2727273   0.3636364   0.4545455), wk =   0.0721262
        k(   52) = (   0.2727273   0.4545455   0.4545455), wk =   0.0360631
        k(   53) = (   0.3636364   0.3636364   0.3636364), wk =   0.0120210
        k(   54) = (   0.3636364   0.3636364   0.4545455), wk =   0.0360631
        k(   55) = (   0.3636364   0.4545455   0.4545455), wk =   0.0360631
        k(   56) = (   0.4545455   0.4545455   0.4545455), wk =   0.0120210

     Dense  grid:   227023 G-vectors     FFT dimensions: (  75,  75,  75)

     Smooth grid:    34505 G-vectors     FFT dimensions: (  45,  45,  45)

     Estimated max dynamical RAM per process >     118.84 MB

     Estimated total dynamical RAM >     950.68 MB

     Check: negative core charge=   -0.000001

     Initial potential from superposition of free atoms

     starting charge      26.9995, renormalised to      28.0000

     negative rho (up, down):  1.378E-03 0.000E+00
     Starting wfcs are   23 randomized atomic wfcs
     Checking if some PAW data can be deallocated... 

     total cpu time spent up to now is        1.3 secs

     per-process dynamical memory:   136.2 Mb

     Self-consistent Calculation

     iteration #  1     ecut=   124.00 Ry     beta= 0.70
     Davidson diagonalization with overlap
     ethr =  1.00E-02,  avg # of iterations =  2.1

     negative rho (up, down):  1.182E-04 0.000E+00

     total cpu time spent up to now is        2.8 secs

     total energy              =    -433.35959372 Ry
     estimated scf accuracy    <      19.31142013 Ry

     iteration #  2     ecut=   124.00 Ry     beta= 0.70
     Davidson diagonalization with overlap
     ethr =  1.00E-02,  avg # of iterations =  6.1

     negative rho (up, down):  1.582E-05 0.000E+00

     total cpu time spent up to now is        5.2 secs

     WARNING: integrated charge=    28.00012004, expected=    28.00000000

     total energy              =    -448.10097473 Ry
     estimated scf accuracy    <      73.65524943 Ry

     iteration #  3     ecut=   124.00 Ry     beta= 0.70
     Davidson diagonalization with overlap
     ethr =  1.00E-02,  avg # of iterations =  3.2

     negative rho (up, down):  1.620E-04 0.000E+00

     total cpu time spent up to now is        6.8 secs

     WARNING: integrated charge=    28.00002134, expected=    28.00000000

     total energy              =    -448.90751703 Ry
     estimated scf accuracy    <      18.17468814 Ry

     iteration #  4     ecut=   124.00 Ry     beta= 0.70
     Davidson diagonalization with overlap
     ethr =  1.00E-02,  avg # of iterations =  2.2

     negative rho (up, down):  2.388E-04 0.000E+00

     total cpu time spent up to now is        8.3 secs

     WARNING: integrated charge=    28.00001801, expected=    28.00000000

     total energy              =    -449.15945171 Ry
     estimated scf accuracy    <       6.32295233 Ry

     iteration #  5     ecut=   124.00 Ry     beta= 0.70
     Davidson diagonalization with overlap
     ethr =  1.00E-02,  avg # of iterations =  1.0

     negative rho (up, down):  5.267E-04 0.000E+00

     total cpu time spent up to now is        9.5 secs

     WARNING: integrated charge=    28.00001915, expected=    28.00000000

     total energy              =    -448.85558655 Ry
     estimated scf accuracy    <       4.88458348 Ry

     iteration #  6     ecut=   124.00 Ry     beta= 0.70
     Davidson diagonalization with overlap
     ethr =  1.00E-02,  avg # of iterations =  1.2

     negative rho (up, down):  1.076E-03 0.000E+00

     total cpu time spent up to now is       10.7 secs

     WARNING: integrated charge=    27.99999434, expected=    28.00000000

     total energy              =    -447.94545347 Ry
     estimated scf accuracy    <       3.86418289 Ry

     iteration #  7     ecut=   124.00 Ry     beta= 0.70
     Davidson diagonalization with overlap
     ethr =  1.00E-02,  avg # of iterations =  3.4

     negative rho (up, down):  9.308E-04 0.000E+00

     total cpu time spent up to now is       12.2 secs

     total energy              =    -448.55802864 Ry
     estimated scf accuracy    <       5.38478485 Ry

     iteration #  8     ecut=   124.00 Ry     beta= 0.70
     Davidson diagonalization with overlap
     ethr =  1.00E-02,  avg # of iterations =  1.0

     negative rho (up, down):  4.783E-04 0.000E+00

     total cpu time spent up to now is       13.4 secs

     WARNING: integrated charge=    28.00001655, expected=    28.00000000

     total energy              =    -448.25299330 Ry
     estimated scf accuracy    <       1.42417388 Ry

     iteration #  9     ecut=   124.00 Ry     beta= 0.70
     Davidson diagonalization with overlap
     ethr =  5.09E-03,  avg # of iterations =  2.7

     negative rho (up, down):  6.620E-04 0.000E+00

     total cpu time spent up to now is       14.7 secs

     WARNING: integrated charge=    28.00000335, expected=    28.00000000

     total energy              =    -448.52171000 Ry
     estimated scf accuracy    <       2.90034291 Ry

     iteration # 10     ecut=   124.00 Ry     beta= 0.70
     Davidson diagonalization with overlap
     ethr =  5.09E-03,  avg # of iterations =  1.0

     negative rho (up, down):  5.945E-04 0.000E+00

     total cpu time spent up to now is       16.0 secs

     total energy              =    -448.59971661 Ry
     estimated scf accuracy    <       0.39800741 Ry

     iteration # 11     ecut=   124.00 Ry     beta= 0.70
     Davidson diagonalization with overlap
     ethr =  1.42E-03,  avg # of iterations =  1.2

     negative rho (up, down):  4.854E-04 0.000E+00

     total cpu time spent up to now is       17.2 secs

     total energy              =    -448.63600396 Ry
     estimated scf accuracy    <       0.18748733 Ry

     iteration # 12     ecut=   124.00 Ry     beta= 0.70
     Davidson diagonalization with overlap
     ethr =  6.70E-04,  avg # of iterations =  1.1

     negative rho (up, down):  3.891E-04 0.000E+00

     total cpu time spent up to now is       18.5 secs

     WARNING: integrated charge=    28.00000317, expected=    28.00000000

     total energy              =    -448.68955260 Ry
     estimated scf accuracy    <       0.28635014 Ry

     iteration # 13     ecut=   124.00 Ry     beta= 0.70
     Davidson diagonalization with overlap
     ethr =  6.70E-04,  avg # of iterations =  1.1

     negative rho (up, down):  1.648E-04 0.000E+00

     total cpu time spent up to now is       19.7 secs

     WARNING: integrated charge=    28.00000319, expected=    28.00000000

     total energy              =    -448.83508442 Ry
     estimated scf accuracy    <       0.85687570 Ry

     iteration # 14     ecut=   124.00 Ry     beta= 0.70
     Davidson diagonalization with overlap
     ethr =  6.70E-04,  avg # of iterations =  1.8

     negative rho (up, down):  1.517E-04 0.000E+00

     total cpu time spent up to now is       21.0 secs

     WARNING: integrated charge=    28.00000322, expected=    28.00000000

     total energy              =    -448.86767584 Ry
     estimated scf accuracy    <       1.51929654 Ry

     iteration # 15     ecut=   124.00 Ry     beta= 0.70
     Davidson diagonalization with overlap
     ethr =  6.70E-04,  avg # of iterations =  1.0

     negative rho (up, down):  2.217E-03 0.000E+00

     total cpu time spent up to now is       22.2 secs

     total energy              =    -448.20767819 Ry
     estimated scf accuracy    <       1.61993693 Ry

     iteration # 16     ecut=   124.00 Ry     beta= 0.70
     Davidson diagonalization with overlap
     ethr =  6.70E-04,  avg # of iterations =  6.3

     negative rho (up, down):  1.065E-03 0.000E+00

     total cpu time spent up to now is       24.3 secs

     total energy              =    -448.10381166 Ry
     estimated scf accuracy    <      11.45959332 Ry

     iteration # 17     ecut=   124.00 Ry     beta= 0.70
     Davidson diagonalization with overlap
     ethr =  6.70E-04,  avg # of iterations =  5.0

     negative rho (up, down):  1.306E-03 0.000E+00

     total cpu time spent up to now is       26.0 secs

     total energy              =    -448.59895258 Ry
     estimated scf accuracy    <       0.03161885 Ry

     iteration # 18     ecut=   124.00 Ry     beta= 0.70
     Davidson diagonalization with overlap
     ethr =  1.13E-04,  avg # of iterations =  4.0

     negative rho (up, down):  1.330E-03 0.000E+00

     total cpu time spent up to now is       27.5 secs

     total energy              =    -448.60848672 Ry
     estimated scf accuracy    <       0.73997794 Ry

     iteration # 19     ecut=   124.00 Ry     beta= 0.70
     Davidson diagonalization with overlap
     ethr =  1.13E-04,  avg # of iterations =  1.0

     negative rho (up, down):  1.424E-03 0.000E+00

     total cpu time spent up to now is       28.7 secs

     total energy              =    -448.62452233 Ry
     estimated scf accuracy    <       0.50273276 Ry

     iteration # 20     ecut=   124.00 Ry     beta= 0.70
     Davidson diagonalization with overlap
     ethr =  1.13E-04,  avg # of iterations =  1.0

     negative rho (up, down):  1.465E-03 0.000E+00

     total cpu time spent up to now is       30.0 secs

     total energy              =    -448.63510175 Ry
     estimated scf accuracy    <       0.77707007 Ry

     iteration # 21     ecut=   124.00 Ry     beta= 0.70
     Davidson diagonalization with overlap
     ethr =  1.13E-04,  avg # of iterations =  1.5

     negative rho (up, down):  1.602E-03 0.000E+00

     total cpu time spent up to now is       31.2 secs

     total energy              =    -448.65949393 Ry
     estimated scf accuracy    <       0.98107290 Ry

     iteration # 22     ecut=   124.00 Ry     beta= 0.70
     Davidson diagonalization with overlap
     ethr =  1.13E-04,  avg # of iterations =  1.8

     negative rho (up, down):  1.608E-03 0.000E+00

     total cpu time spent up to now is       32.5 secs

     total energy              =    -448.66490870 Ry
     estimated scf accuracy    <       1.47304080 Ry

     iteration # 23     ecut=   124.00 Ry     beta= 0.70
     Davidson diagonalization with overlap
     ethr =  1.13E-04,  avg # of iterations =  1.0

     negative rho (up, down):  1.629E-03 0.000E+00

     total cpu time spent up to now is       33.7 secs

     total energy              =    -448.67135220 Ry
     estimated scf accuracy    <       1.55612792 Ry

     iteration # 24     ecut=   124.00 Ry     beta= 0.70
     Davidson diagonalization with overlap
     ethr =  1.13E-04,  avg # of iterations =  1.0

     negative rho (up, down):  1.007E-03 0.000E+00

     total cpu time spent up to now is       35.0 secs

     total energy              =    -448.49375435 Ry
     estimated scf accuracy    <       1.70626584 Ry

     iteration # 25     ecut=   124.00 Ry     beta= 0.70
     Davidson diagonalization with overlap
     ethr =  1.13E-04,  avg # of iterations =  5.1

     negative rho (up, down):  9.945E-04 0.000E+00

     total cpu time spent up to now is       36.8 secs

     WARNING: integrated charge=    28.00084429, expected=    28.00000000

     total energy              =    -448.58084036 Ry
     estimated scf accuracy    <       0.00120186 Ry

     iteration # 26     ecut=   124.00 Ry     beta= 0.70
     Davidson diagonalization with overlap
     ethr =  4.29E-06,  avg # of iterations =  4.4

     negative rho (up, down):  1.003E-03 0.000E+00

     total cpu time spent up to now is       38.4 secs

     WARNING: integrated charge=    28.00098083, expected=    28.00000000

     total energy              =    -448.58077285 Ry
     estimated scf accuracy    <       0.00050620 Ry

     iteration # 27     ecut=   124.00 Ry     beta= 0.70
     Davidson diagonalization with overlap
     ethr =  1.81E-06,  avg # of iterations =  1.3

     negative rho (up, down):  9.950E-04 0.000E+00

     total cpu time spent up to now is       39.6 secs

     WARNING: integrated charge=    28.00450231, expected=    28.00000000

     total energy              =    -448.57960501 Ry
     estimated scf accuracy    <       0.00087088 Ry

     iteration # 28     ecut=   124.00 Ry     beta= 0.70
     Davidson diagonalization with overlap
     ethr =  1.81E-06,  avg # of iterations =  2.0

     negative rho (up, down):  9.916E-04 0.000E+00

     total cpu time spent up to now is       40.9 secs

     WARNING: integrated charge=    28.00280738, expected=    28.00000000

     total energy              =    -448.57881311 Ry
     estimated scf accuracy    <       0.00231859 Ry

     iteration # 29     ecut=   124.00 Ry     beta= 0.70
     Davidson diagonalization with overlap
     ethr =  1.81E-06,  avg # of iterations =  1.0

     negative rho (up, down):  9.904E-04 0.000E+00

     total cpu time spent up to now is       42.2 secs

     WARNING: integrated charge=    28.00186863, expected=    28.00000000

     total energy              =    -448.58016955 Ry
     estimated scf accuracy    <       0.00095674 Ry

     iteration # 30     ecut=   124.00 Ry     beta= 0.70
     Davidson diagonalization with overlap
     ethr =  1.81E-06,  avg # of iterations =  1.0

     negative rho (up, down):  9.891E-04 0.000E+00

     total cpu time spent up to now is       43.4 secs

     WARNING: integrated charge=    28.00171461, expected=    28.00000000

     total energy              =    -448.58058597 Ry
     estimated scf accuracy    <       0.00065899 Ry

     iteration # 31     ecut=   124.00 Ry     beta= 0.70
     Davidson diagonalization with overlap
     ethr =  1.81E-06,  avg # of iterations =  1.0

     negative rho (up, down):  9.755E-04 0.000E+00

     total cpu time spent up to now is       44.6 secs

     WARNING: integrated charge=    28.00019167, expected=    28.00000000

     total energy              =    -448.58063186 Ry
     estimated scf accuracy    <       0.00060096 Ry

     iteration # 32     ecut=   124.00 Ry     beta= 0.70
     Davidson diagonalization with overlap
     ethr =  1.81E-06,  avg # of iterations =  1.6

     negative rho (up, down):  9.733E-04 0.000E+00

     total cpu time spent up to now is       45.9 secs

     WARNING: integrated charge=    27.99978886, expected=    28.00000000

     total energy              =    -448.58236727 Ry
     estimated scf accuracy    <       0.00003168 Ry

     iteration # 33     ecut=   124.00 Ry     beta= 0.70
     Davidson diagonalization with overlap
     ethr =  1.13E-07,  avg # of iterations =  4.6

     negative rho (up, down):  9.734E-04 0.000E+00

     total cpu time spent up to now is       47.4 secs

     WARNING: integrated charge=    27.99980768, expected=    28.00000000

     total energy              =    -448.58237827 Ry
     estimated scf accuracy    <       0.00000388 Ry

     iteration # 34     ecut=   124.00 Ry     beta= 0.70
     Davidson diagonalization with overlap
     ethr =  1.39E-08,  avg # of iterations =  3.2

     negative rho (up, down):  9.740E-04 0.000E+00

     total cpu time spent up to now is       48.8 secs

     WARNING: integrated charge=    28.00011675, expected=    28.00000000

     total energy              =    -448.58237831 Ry
     estimated scf accuracy    <       0.00000670 Ry

     iteration # 35     ecut=   124.00 Ry     beta= 0.70
     Davidson diagonalization with overlap
     ethr =  1.39E-08,  avg # of iterations =  1.0

     negative rho (up, down):  9.737E-04 0.000E+00

     total cpu time spent up to now is       50.0 secs

     WARNING: integrated charge=    27.99996102, expected=    28.00000000

     total energy              =    -448.58237847 Ry
     estimated scf accuracy    <       0.00000198 Ry

     iteration # 36     ecut=   124.00 Ry     beta= 0.70
     Davidson diagonalization with overlap
     ethr =  7.07E-09,  avg # of iterations =  1.0

     negative rho (up, down):  9.738E-04 0.000E+00

     total cpu time spent up to now is       51.2 secs

     WARNING: integrated charge=    27.99993986, expected=    28.00000000

     total energy              =    -448.58237844 Ry
     estimated scf accuracy    <       0.00000226 Ry

     iteration # 37     ecut=   124.00 Ry     beta= 0.70
     Davidson diagonalization with overlap
     ethr =  7.07E-09,  avg # of iterations =  1.0

     negative rho (up, down):  9.737E-04 0.000E+00

     total cpu time spent up to now is       52.5 secs

     WARNING: integrated charge=    27.99995172, expected=    28.00000000

     total energy              =    -448.58237836 Ry
     estimated scf accuracy    <       0.00000162 Ry

     iteration # 38     ecut=   124.00 Ry     beta= 0.70
     Davidson diagonalization with overlap
     ethr =  5.78E-09,  avg # of iterations =  1.0

     negative rho (up, down):  9.738E-04 0.000E+00

     total cpu time spent up to now is       53.7 secs

     WARNING: integrated charge=    27.99995855, expected=    28.00000000

     total energy              =    -448.58237835 Ry
     estimated scf accuracy    <       0.00000069 Ry

     iteration # 39     ecut=   124.00 Ry     beta= 0.70
     Davidson diagonalization with overlap
     ethr =  2.45E-09,  avg # of iterations =  1.0

     negative rho (up, down):  9.737E-04 0.000E+00

     total cpu time spent up to now is       54.9 secs

     WARNING: integrated charge=    27.99993243, expected=    28.00000000

     total energy              =    -448.58237838 Ry
     estimated scf accuracy    <       0.00000035 Ry

     iteration # 40     ecut=   124.00 Ry     beta= 0.70
     Davidson diagonalization with overlap
     ethr =  1.25E-09,  avg # of iterations =  1.0

     negative rho (up, down):  9.739E-04 0.000E+00

     total cpu time spent up to now is       56.2 secs

     WARNING: integrated charge=    27.99998306, expected=    28.00000000

     total energy              =    -448.58237834 Ry
     estimated scf accuracy    <       0.00000055 Ry

     iteration # 41     ecut=   124.00 Ry     beta= 0.70
     Davidson diagonalization with overlap
     ethr =  1.25E-09,  avg # of iterations =  1.1

     negative rho (up, down):  9.740E-04 0.000E+00

     total cpu time spent up to now is       57.4 secs

     WARNING: integrated charge=    27.99998650, expected=    28.00000000

     total energy              =    -448.58237833 Ry
     estimated scf accuracy    <       0.00000023 Ry

     iteration # 42     ecut=   124.00 Ry     beta= 0.70
     Davidson diagonalization with overlap
     ethr =  8.09E-10,  avg # of iterations =  2.5

     negative rho (up, down):  9.740E-04 0.000E+00

     total cpu time spent up to now is       58.7 secs

     WARNING: integrated charge=    27.99998928, expected=    28.00000000

     total energy              =    -448.58237835 Ry
     estimated scf accuracy    <       0.00000004 Ry

     iteration # 43     ecut=   124.00 Ry     beta= 0.70
     Davidson diagonalization with overlap
     ethr =  1.40E-10,  avg # of iterations =  1.7

     negative rho (up, down):  9.740E-04 0.000E+00

     total cpu time spent up to now is       60.0 secs

     WARNING: integrated charge=    27.99998683, expected=    28.00000000

     total energy              =    -448.58237835 Ry
     estimated scf accuracy    <       0.00000009 Ry

     iteration # 44     ecut=   124.00 Ry     beta= 0.70
     Davidson diagonalization with overlap
     ethr =  1.40E-10,  avg # of iterations =  1.0

     negative rho (up, down):  9.740E-04 0.000E+00

     total cpu time spent up to now is       61.2 secs

     total energy              =    -448.58237835 Ry
     estimated scf accuracy    <       0.00000007 Ry

     iteration # 45     ecut=   124.00 Ry     beta= 0.70
     Davidson diagonalization with overlap
     ethr =  1.40E-10,  avg # of iterations =  1.0

     negative rho (up, down):  9.739E-04 0.000E+00

     total cpu time spent up to now is       62.5 secs

     WARNING: integrated charge=    28.00000384, expected=    28.00000000

     total energy              =    -448.58237834 Ry
     estimated scf accuracy    <       0.00000007 Ry

     iteration # 46     ecut=   124.00 Ry     beta= 0.70
     Davidson diagonalization with overlap
     ethr =  1.40E-10,  avg # of iterations =  1.3

     negative rho (up, down):  9.740E-04 0.000E+00

     total cpu time spent up to now is       63.7 secs

     End of self-consistent calculation

          k = 0.0000 0.0000 0.0000 (  4385 PWs)   bands (ev):

   -70.7464 -40.9018 -36.8049 -36.8049 -36.8049 -17.0154 -17.0154 -17.0154
     8.8287  12.6829  12.6829  15.1645  15.1645  15.1645  17.2870  17.2870
    19.0206  19.0206

          k = 0.0000 0.0000 0.0909 (  4345 PWs)   bands (ev):

   -70.7462 -40.9001 -36.8069 -36.8047 -36.8047 -17.0373 -17.0140 -17.0140
     8.9893  12.7580  12.7588  15.1527  15.1527  15.1985  17.1953  17.3208
    18.7992  18.7992

          k = 0.0000 0.0000 0.1818 (  4324 PWs)   bands (ev):

   -70.7457 -40.8956 -36.8123 -36.8039 -36.8039 -17.0956 -17.0103 -17.0103
     9.4574  12.9494  12.9808  15.1253  15.1253  15.2938  16.9295  17.3941
    18.2812  18.2812

          k = 0.0000 0.0000 0.2727 (  4316 PWs)   bands (ev):

   -70.7451 -40.8898 -36.8193 -36.8030 -36.8030 -17.1712 -17.0054 -17.0054
    10.1898  13.1533  13.3291  15.1003  15.1003  15.4288  16.5209  17.4060
    17.7058  17.7058

          k = 0.0000 0.0000 0.3636 (  4316 PWs)   bands (ev):

   -70.7445 -40.8844 -36.8257 -36.8021 -36.8021 -17.2400 -17.0008 -17.0008
    11.1064  13.1921  13.7581  15.0921  15.0921  15.5659  16.0337  17.2029
    17.2350  17.2350

          k = 0.0000 0.0000 0.4545 (  4324 PWs)   bands (ev):

   -70.7441 -40.8812 -36.8295 -36.8016 -36.8016 -17.2806 -16.9981 -16.9981
    12.0562  12.8608  14.1391  15.0967  15.0967  15.6168  15.6551  16.9013
    16.9694  16.9694

          k = 0.0000 0.0909 0.0909 (  4329 PWs)   bands (ev):

   -70.7460 -40.8984 -36.8074 -36.8060 -36.8044 -17.0378 -17.0337 -17.0126
     9.1472  12.8278  12.8371  15.0807  15.1339  15.2826  17.1816  17.2952
    18.5564  18.5766

          k = 0.0000 0.0909 0.1818 (  4324 PWs)   bands (ev):

   -70.7455 -40.8937 -36.8124 -36.8060 -36.8037 -17.0937 -17.0313 -17.0087
     9.6062  13.0147  13.0532  15.0092  15.0874  15.3860  16.9770  17.3591
    18.0696  18.1037

          k = 0.0000 0.0909 0.2727 (  4321 PWs)   bands (ev):

   -70.7449 -40.8876 -36.8195 -36.8053 -36.8028 -17.1687 -17.0258 -17.0036
    10.3219  13.2169  13.3804  14.9689  15.0341  15.4614  16.6294  17.3179
    17.6189  17.6583

          k = 0.0000 0.0909 0.3636 (  4310 PWs)   bands (ev):

   -70.7443 -40.8821 -36.8260 -36.8047 -36.8019 -17.2369 -17.0208 -16.9989
    11.2113  13.2455  13.7793  14.9703  14.9865  15.4693  16.2289  16.9476
    17.3591  17.4550

          k = 0.0000 0.0909 0.4545 (  4322 PWs)   bands (ev):

   -70.7440 -40.8787 -36.8299 -36.8044 -36.8014 -17.2771 -17.0178 -16.9961
    12.1224  12.9136  14.1298  14.9269  14.9984  15.4256  15.9366  16.6743
    17.2370  17.2698

          k = 0.0000 0.1818 0.1818 (  4340 PWs)   bands (ev):

   -70.7451 -40.8886 -36.8140 -36.8102 -36.8030 -17.0938 -17.0823 -17.0045
    10.0360  13.1463  13.2900  14.8555  14.9989  15.4518  17.0204  17.3241
    17.6037  17.8172

          k = 0.0000 0.1818 0.2727 (  4319 PWs)   bands (ev):

   -70.7444 -40.8819 -36.8203 -36.8114 -36.8021 -17.1619 -17.0803 -16.9989
    10.6947  13.2766  13.6205  14.7475  14.9114  15.3846  16.8717  17.0967
    17.4651  17.6567

          k = 0.0000 0.1818 0.3636 (  4316 PWs)   bands (ev):

   -70.7438 -40.8757 -36.8271 -36.8116 -36.8013 -17.2284 -17.0740 -16.9938
    11.4871  13.2579  13.9684  14.7137  14.8766  15.2012  16.6044  16.7838
    17.5605  17.6704

          k = 0.0000 0.1818 0.4545 (  4315 PWs)   bands (ev):

   -70.7435 -40.8720 -36.8311 -36.8116 -36.8008 -17.2676 -17.0702 -16.9908
    12.2517  12.9648  14.2299  14.7547  14.8932  15.0125  16.4473  16.5601
    17.5620  17.7529

          k = 0.0000 0.2727 0.2727 (  4310 PWs)   bands (ev):

   -70.7438 -40.8744 -36.8226 -36.8181 -36.8013 -17.1588 -17.1453 -16.9928
    11.2357  13.2474  14.0115  14.5627  14.8542  15.1480  16.8931  17.0790
    17.3674  17.8083

          k = 0.0000 0.2727 0.3636 (  4329 PWs)   bands (ev):

   -70.7432 -40.8674 -36.8285 -36.8205 -36.8005 -17.2173 -17.1431 -16.9871
    11.8224  13.1090  14.4034  14.4643  14.8616  14.9689  16.7216  17.0555
    17.5102  18.0507

          k = 0.0000 0.2727 0.4545 (  4341 PWs)   bands (ev):

   -70.7429 -40.8633 -36.8327 -36.8211 -36.8000 -17.2552 -17.1383 -16.9837
    12.2975  12.8849  14.4736  14.6183  14.6305  15.2632  16.4901  17.0210
    17.6794  18.2684

          k = 0.0000 0.3636 0.3636 (  4314 PWs)   bands (ev):

   -70.7426 -40.8598 -36.8305 -36.8279 -36.7997 -17.2105 -17.2026 -16.9809
    12.0884  12.9080  14.2981  14.5535  14.9400  15.2975  16.8225  17.3519
    17.3779  18.4089

          k = 0.0000 0.3636 0.4545 (  4343 PWs)   bands (ev):

   -70.7423 -40.8552 -36.8342 -36.8298 -36.7993 -17.2438 -17.2003 -16.9772
    12.2327  12.7596  14.2510  14.3411  15.2630  15.8784  16.5962  17.4157
    17.5399  18.6768

          k = 0.0000 0.4545 0.4545 (  4322 PWs)   bands (ev):

   -70.7420 -40.8504 -36.8352 -36.8349 -36.7988 -17.2375 -17.2364 -16.9734
    12.1626  12.6808  14.1433  14.1734  15.9063  16.3107  16.9156  17.0802
    17.6602  18.9174

          k = 0.0909 0.0909 0.0909 (  4325 PWs)   bands (ev):

   -70.7458 -40.8966 -36.8071 -36.8071 -36.8053 -17.0378 -17.0322 -17.0322
     9.3026  12.9054  12.9054  15.0603  15.0603  15.3491  17.2264  17.2264
    18.1848  18.7806

          k = 0.0909 0.0909 0.1818 (  4314 PWs)   bands (ev):

   -70.7454 -40.8918 -36.8124 -36.8064 -36.8052 -17.0918 -17.0308 -17.0284
     9.7538  13.1019  13.1038  14.9621  15.0061  15.4198  17.0278  17.3263
    17.7621  18.2594

          k = 0.0909 0.0909 0.2727 (  4316 PWs)   bands (ev):

   -70.7447 -40.8855 -36.8197 -36.8054 -36.8048 -17.1661 -17.0247 -17.0234
    10.4546  13.3039  13.4106  14.9075  14.9322  15.4156  16.7271  17.2708
    17.5814  17.6913

          k = 0.0909 0.0909 0.3636 (  4314 PWs)   bands (ev):

   -70.7441 -40.8797 -36.8264 -36.8045 -36.8044 -17.2338 -17.0190 -17.0188
    11.3199  13.3203  13.7797  14.8417  14.9300  15.3432  16.3888  16.9979
    17.2392  17.6544

          k = 0.0909 0.0909 0.4545 (  4323 PWs)   bands (ev):

   -70.7438 -40.8763 -36.8303 -36.8042 -36.8040 -17.2737 -17.0160 -17.0156
    12.1969  12.9808  14.1021  14.7302  15.0258  15.2672  16.1435  16.7243
    16.9924  17.7388

          k = 0.0909 0.1818 0.1818 (  4326 PWs)   bands (ev):

   -70.7449 -40.8866 -36.8137 -36.8105 -36.8051 -17.0914 -17.0808 -17.0251
    10.1793  13.2364  13.3358  14.8220  14.9065  15.3839  17.0808  17.2991
    17.5056  18.0068

          k = 0.0909 0.1818 0.2727 (  4315 PWs)   bands (ev):

   -70.7442 -40.8797 -36.8203 -36.8114 -36.8045 -17.1595 -17.0785 -17.0192
    10.8293  13.3830  13.6366  14.7075  14.8128  15.2241  16.9486  17.2027
    17.5018  17.7043

          k = 0.0909 0.1818 0.3636 (  4325 PWs)   bands (ev):

   -70.7437 -40.8734 -36.8272 -36.8114 -36.8039 -17.2256 -17.0721 -17.0138
    11.6066  13.3699  13.9300  14.6378  14.7987  15.0642  16.7437  16.8815
    17.3680  17.9279

          k = 0.0909 0.1818 0.4545 (  4327 PWs)   bands (ev):

   -70.7433 -40.8697 -36.8314 -36.8114 -36.8035 -17.2647 -17.0683 -17.0105
    12.3496  13.0654  14.1531  14.5678  14.8936  14.9993  16.5713  16.6299
    17.1831  18.2658

          k = 0.0909 0.2727 0.2727 (  4330 PWs)   bands (ev):

   -70.7436 -40.8721 -36.8223 -36.8183 -36.8038 -17.1561 -17.1438 -17.0129
    11.3718  13.3581  14.0205  14.5270  14.7442  14.9575  16.9976  17.2207
    17.3501  17.9214

          k = 0.0909 0.2727 0.3636 (  4328 PWs)   bands (ev):

   -70.7430 -40.8652 -36.8284 -36.8203 -36.8031 -17.2149 -17.1412 -17.0071
    11.9549  13.2217  14.3518  14.4242  14.7519  14.8564  16.7945  17.1350
    17.4123  18.2842

          k = 0.0909 0.2727 0.4545 (  4333 PWs)   bands (ev):

   -70.7427 -40.8610 -36.8327 -36.8208 -36.8027 -17.2528 -17.1365 -17.0036
    12.4176  12.9999  14.3990  14.4308  14.6864  15.1888  16.5216  17.1140
    17.3395  18.7152

          k = 0.0909 0.3636 0.3636 (  4322 PWs)   bands (ev):

   -70.7425 -40.8576 -36.8302 -36.8278 -36.8024 -17.2082 -17.2011 -17.0009
    12.2233  13.0200  14.2694  14.4721  14.9006  15.1456  16.7974  17.2397
    17.4692  18.6816

          k = 0.0909 0.3636 0.4545 (  4334 PWs)   bands (ev):

   -70.7421 -40.8531 -36.8340 -36.8295 -36.8019 -17.2419 -17.1986 -16.9972
    12.3592  12.8757  14.2201  14.2934  15.1910  15.7199  16.5637  17.2011
    17.5501  18.8970

          k = 0.0909 0.4545 0.4545 (  4339 PWs)   bands (ev):

   -70.7418 -40.8483 -36.8349 -36.8346 -36.8015 -17.2358 -17.2349 -16.9934
    12.2890  12.7965  14.1214  14.1473  15.8479  16.1659  16.7138  16.7857
    17.7319  19.1000

          k = 0.1818 0.1818 0.1818 (  4326 PWs)   bands (ev):

   -70.7444 -40.8811 -36.8129 -36.8129 -36.8092 -17.0884 -17.0768 -17.0768
    10.5901  13.4657  13.4657  14.7321  14.7321  15.1470  17.2257  17.2257
    17.5506  18.2220

          k = 0.1818 0.1818 0.2727 (  4322 PWs)   bands (ev):

   -70.7438 -40.8739 -36.8203 -36.8119 -36.8103 -17.1530 -17.0752 -17.0716
    11.2090  13.6569  13.6841  14.6074  14.6104  14.8694  17.1149  17.2756
    17.6779  17.8197

          k = 0.1818 0.1818 0.3636 (  4337 PWs)   bands (ev):

   -70.7432 -40.8673 -36.8276 -36.8110 -36.8107 -17.2182 -17.0674 -17.0667
    11.9277  13.6141  13.8712  14.4798  14.6292  14.8079  16.9992  17.0178
    17.2535  18.3174

          k = 0.1818 0.1818 0.4545 (  4333 PWs)   bands (ev):

   -70.7428 -40.8633 -36.8319 -36.8110 -36.8104 -17.2567 -17.0639 -17.0627
    12.5801  13.2649  14.0494  14.3620  14.7244  14.9522  16.6366  16.9385
    17.0075  18.6603

          k = 0.1818 0.2727 0.2727 (  4334 PWs)   bands (ev):

   -70.7431 -40.8662 -36.8214 -36.8186 -36.8106 -17.1488 -17.1396 -17.0666
    11.7553  13.6603  14.0417  14.4340  14.4976  14.5636  17.1160  17.2771
    17.5979  18.2417

          k = 0.1818 0.2727 0.3636 (  4329 PWs)   bands (ev):

   -70.7426 -40.8592 -36.8281 -36.8199 -36.8101 -17.2086 -17.1362 -17.0604
    12.3247  13.5183  14.1841  14.3244  14.5241  14.6355  16.8950  17.1193
    17.5026  18.5326

          k = 0.1818 0.2727 0.4545 (  4330 PWs)   bands (ev):

   -70.7422 -40.8550 -36.8327 -36.8201 -36.8098 -17.2463 -17.1318 -17.0566
    12.7434  13.2872  14.1788  14.2630  14.5880  15.0107  16.5551  16.9795
    17.4233  18.7257

          k = 0.1818 0.3636 0.3636 (  4326 PWs)   bands (ev):

   -70.7420 -40.8518 -36.8293 -36.8276 -36.8094 -17.2021 -17.1968 -17.0542
    12.6091  13.3136  14.1970  14.2938  14.7762  14.7802  16.7815  16.9807
    17.7364  18.6799

          k = 0.1818 0.3636 0.4545 (  4341 PWs)   bands (ev):

   -70.7417 -40.8473 -36.8334 -36.8287 -36.8090 -17.2367 -17.1941 -17.0505
    12.7191  13.1810  14.1458  14.1855  14.9580  15.3407  16.5108  16.8464
    17.8035  18.8932

          k = 0.1818 0.4545 0.4545 (  4331 PWs)   bands (ev):

   -70.7413 -40.8428 -36.8340 -36.8337 -36.8085 -17.2313 -17.2306 -17.0468
    12.6515  13.1057  14.0680  14.0861  15.5813  15.6551  16.4089  16.5805
    17.9677  19.1549

          k = 0.2727 0.2727 0.2727 (  4347 PWs)   bands (ev):

   -70.7425 -40.8585 -36.8204 -36.8204 -36.8182 -17.1414 -17.1342 -17.1342
    12.3006  14.0619  14.0619  14.1305  14.3177  14.3177  17.1178  17.1178
    18.0185  18.0185

          k = 0.2727 0.2727 0.3636 (  4344 PWs)   bands (ev):

   -70.7419 -40.8513 -36.8279 -36.8194 -36.8191 -17.2003 -17.1300 -17.1292
    12.8246  13.7643  14.0717  14.2152  14.3017  14.4960  16.8774  16.9318
    17.8837  18.4590

          k = 0.2727 0.2727 0.4545 (  4336 PWs)   bands (ev):

   -70.7416 -40.8471 -36.8327 -36.8194 -36.8188 -17.2377 -17.1262 -17.1247
    13.1202  13.5280  14.0741  14.1545  14.4317  14.8706  16.5050  16.8198
    17.8360  18.7580

          k = 0.2727 0.3636 0.3636 (  4344 PWs)   bands (ev):

   -70.7414 -40.8441 -36.8281 -36.8273 -36.8186 -17.1941 -17.1913 -17.1234
    13.1809  13.6319  14.1152  14.1797  14.3685  14.5897  16.7341  16.7382
    18.1529  18.6385

          k = 0.2727 0.3636 0.4545 (  4336 PWs)   bands (ev):

   -70.7410 -40.8398 -36.8327 -36.8276 -36.8182 -17.2299 -17.1882 -17.1197
    13.2382  13.5387  14.0774  14.1118  14.6027  14.9445  16.4224  16.6636
    18.2080  18.9263

          k = 0.2727 0.4545 0.4545 (  4337 PWs)   bands (ev):

   -70.7407 -40.8355 -36.8328 -36.8326 -36.8176 -17.2254 -17.2250 -17.1162
    13.1924  13.4999  14.0157  14.0365  15.0758  15.1099  16.2731  16.5117
    18.3633  19.1881

          k = 0.3636 0.3636 0.3636 (  4353 PWs)   bands (ev):

   -70.7408 -40.8371 -36.8271 -36.8271 -36.8270 -17.1869 -17.1862 -17.1862
    13.6472  13.8296  14.0641  14.0641  14.3760  14.3760  16.5792  16.5792
    18.6439  18.6439

          k = 0.3636 0.3636 0.4545 (  4349 PWs)   bands (ev):

   -70.7405 -40.8329 -36.8320 -36.8268 -36.8264 -17.2236 -17.1831 -17.1823
    13.6490  13.7761  14.0718  14.2069  14.3109  14.6816  16.3415  16.5112
    18.6552  19.0088

          k = 0.3636 0.4545 0.4545 (  4332 PWs)   bands (ev):

   -70.7401 -40.8288 -36.8316 -36.8316 -36.8260 -17.2199 -17.2199 -17.1794
    13.7468  13.8490  14.0043  14.0854  14.6100  14.6641  16.2381  16.3872
    18.8516  19.2138

          k = 0.4545 0.4545 0.4545 (  4320 PWs)   bands (ev):

   -70.7398 -40.8248 -36.8311 -36.8310 -36.8310 -17.2168 -17.2168 -17.2166
    13.9417  14.0573  14.0573  14.3519  14.3588  14.3588  16.2295  16.2295
    19.2284  19.2284

     the Fermi energy is    16.0489 ev

!    total energy              =    -448.58237834 Ry
     estimated scf accuracy    <          7.0E-09 Ry
     smearing contrib. (-TS)   =       0.00003199 Ry
     internal energy E=F+TS    =    -448.58241033 Ry

     The total energy is F=E-TS. E is the sum of the following terms:
     one-electron contribution =    -162.01614904 Ry
     hartree contribution      =      95.27525138 Ry
     xc contribution           =     -52.75449194 Ry
     ewald contribution        =    -252.93502551 Ry
     one-center paw contrib.   =     -76.15199522 Ry

     convergence has been achieved in  46 iterations

     negative rho (up, down):  9.740E-04 0.000E+00

     Forces acting on atoms (cartesian axes, Ry/au):

     atom    1 type  1   force =     0.00000000    0.00000000    0.00000000
     atom    2 type  2   force =     0.00000000    0.00000000    0.00000000

     Total force =     0.000000     Total SCF correction =     0.000000


     Computing stress (Cartesian axis) and pressure


     negative rho (up, down):  9.740E-04 0.000E+00
          total   stress  (Ry/bohr**3)                   (kbar)     P=     -110.50
  -0.00075117   0.00000000   0.00000000         -110.50        0.00        0.00
   0.00000000  -0.00075117   0.00000000            0.00     -110.50        0.00
   0.00000000   0.00000000  -0.00075117            0.00        0.00     -110.50


     Writing all to output data dir ./TiFe.save/ :
     XML data file, charge density, pseudopotentials, collected wavefunctions

     init_run     :      1.10s CPU      1.14s WALL (       1 calls)
     electrons    :     59.38s CPU     62.39s WALL (       1 calls)
     forces       :      0.26s CPU      0.28s WALL (       1 calls)
     stress       :      1.53s CPU      1.59s WALL (       1 calls)

     Called by init_run:
     wfcinit      :      0.46s CPU      0.47s WALL (       1 calls)
     potinit      :      0.20s CPU      0.21s WALL (       1 calls)
     hinit0       :      0.25s CPU      0.26s WALL (       1 calls)

     Called by electrons:
     c_bands      :     37.49s CPU     38.22s WALL (      46 calls)
     sum_band     :     12.52s CPU     13.70s WALL (      46 calls)
     v_of_rho     :      1.05s CPU      1.15s WALL (      47 calls)
     newd         :      5.78s CPU      6.69s WALL (      47 calls)
     PAW_pot      :      2.51s CPU      2.57s WALL (      47 calls)
     mix_rho      :      0.13s CPU      0.15s WALL (      46 calls)

     Called by c_bands:
     init_us_2    :      0.89s CPU      0.92s WALL (    5320 calls)
     cegterg      :     35.87s CPU     36.53s WALL (    2576 calls)

     Called by *egterg:
     cdiaghg      :      2.76s CPU      2.80s WALL (    7760 calls)
     h_psi        :     29.92s CPU     30.50s WALL (    7816 calls)
     s_psi        :      0.55s CPU      0.56s WALL (    7816 calls)
     g_psi        :      0.11s CPU      0.12s WALL (    5184 calls)

     Called by h_psi:
     h_psi:calbec :      1.13s CPU      1.15s WALL (    7816 calls)
     vloc_psi     :     28.08s CPU     28.62s WALL (    7816 calls)
     add_vuspsi   :      0.58s CPU      0.59s WALL (    7816 calls)

     General routines
     calbec       :      1.62s CPU      1.65s WALL (   11344 calls)
     fft          :      0.71s CPU      0.84s WALL (     634 calls)
     ffts         :      0.13s CPU      0.13s WALL (      93 calls)
     fftw         :     28.96s CPU     29.49s WALL (  259848 calls)
     interpolate  :      0.16s CPU      0.17s WALL (      47 calls)

     Parallel routines

     PWSCF        :     62.56s CPU     65.83s WALL


   This run was terminated on:   0:49: 0  25Oct2025            

=------------------------------------------------------------------------------=
   JOB DONE.
=------------------------------------------------------------------------------=
