
     Program PWSCF v.7.4 starts on 25Oct2025 at  0:39:18 

     This program is part of the open-source Quantum ESPRESSO suite
     for quantum simulation of materials; please cite
         "P. Giannozzi et al., J. Phys.:Condens. Matter 21 395502 (2009);
         "P. Giannozzi et al., J. Phys.:Condens. Matter 29 465901 (2017);
         "P. Giannozzi et al., J. Chem. Phys. 152 154105 (2020);
          URL http://www.quantum-espresso.org", 
     in publications or presentations arising from this work. More details at
     http://www.quantum-espresso.org/quote

     Parallel version (MPI & OpenMP), running on       8 processor cores
     Number of MPI processes:                 8
     Threads/MPI process:                     1

     MPI processes distributed on     1 nodes
     210220 MiB available memory on the printing compute node when the environment starts

     Reading input from TiFe_9.in

     Current dimensions of program PWSCF are:
     Max number of different atomic species (ntypx) = 10
     Max number of k-points (npk) =  40000
     Max angular momentum in pseudopotentials (lmaxx) =  4
     file Fe.pbe-spn-kjpaw_psl.0.2.1.UPF: wavefunction(s)  3D renormalized

     IMPORTANT: XC functional enforced from input :
     Exchange-correlation= PBE
                           (   1   4   3   4   0   0   0)
     Any further DFT definition will be discarded
     Please, verify this is what you really want

     Message from routine setup:
     using ibrav=0 with symmetry is DISCOURAGED, use correct ibrav instead

     R & G space division:  proc/nbgrp/npool/nimage =       8
     Subspace diagonalization in iterative solution of the eigenvalue problem:
     a serial algorithm will be used


     Parallelization info
     --------------------
     sticks:   dense  smooth     PW     G-vecs:    dense   smooth      PW
     Min         523     150     43                25353     3886     617
     Max         524     151     44                25356     3889     620
     Sum        4189    1201    349               202837    31103    4945

     Using Slab Decomposition



     bravais-lattice index     =            0
     lattice parameter (alat)  =       5.4966  a.u.
     unit-cell volume          =     166.0674 (a.u.)^3
     number of atoms/cell      =            2
     number of atomic types    =            2
     number of electrons       =        28.00
     number of Kohn-Sham states=           18
     kinetic-energy cutoff     =     124.0000  Ry
     charge density cutoff     =    1736.0000  Ry
     scf convergence threshold =      1.0E-08
     mixing beta               =       0.7000
     number of iterations used =            8  plain     mixing
     Exchange-correlation= PBE
                           (   1   4   3   4   0   0   0)

     celldm(1)=   5.496609  celldm(2)=   0.000000  celldm(3)=   0.000000
     celldm(4)=   0.000000  celldm(5)=   0.000000  celldm(6)=   0.000000

     crystal axes: (cart. coord. in units of alat)
               a(1) = (   1.000000   0.000000   0.000000 )  
               a(2) = (   0.000000   1.000000   0.000000 )  
               a(3) = (   0.000000   0.000000   1.000000 )  

     reciprocal axes: (cart. coord. in units 2 pi/alat)
               b(1) = (  1.000000  0.000000  0.000000 )  
               b(2) = (  0.000000  1.000000  0.000000 )  
               b(3) = (  0.000000  0.000000  1.000000 )  


     PseudoPot. # 1 for Fe read from file:
     ../pseudos/Fe.pbe-spn-kjpaw_psl.0.2.1.UPF
     MD5 check sum: e86618425769142926afa95317d90200
     Pseudo is Projector augmented-wave + core cor, Zval = 16.0
     Generated using "atomic" code by A. Dal Corso  v.5.0.99 svn rev. 10869
     Shape of augmentation charge: PSQ
     Using radial grid of 1191 points,  6 beta functions with: 
                l(1) =   0
                l(2) =   0
                l(3) =   1
                l(4) =   1
                l(5) =   2
                l(6) =   2
     Q(r) pseudized with 0 coefficients 


     PseudoPot. # 2 for Ti read from file:
     ../pseudos/ti_pbe_v1.4.uspp.F.UPF
     MD5 check sum: 88a00a6731bd790ddea75d31a80cb452
     Pseudo is Ultrasoft + core correction, Zval = 12.0
     Generated by new atomic code, or converted to UPF format
     Using radial grid of  851 points,  6 beta functions with: 
                l(1) =   0
                l(2) =   0
                l(3) =   1
                l(4) =   1
                l(5) =   2
                l(6) =   2
     Q(r) pseudized with  6 coefficients,  rinner =    1.000   1.000   1.000
                                                       1.000   1.000

     atomic species   valence    mass     pseudopotential
     Fe               16.00    55.84500     Fe( 1.00)
     Ti               12.00    47.86700     Ti( 1.00)

     48 Sym. Ops., with inversion, found



   Cartesian axes

     site n.     atom                  positions (alat units)
         1        Fe     tau(   1) = (   0.5000000   0.5000000   0.5000000  )
         2        Ti     tau(   2) = (   0.0000000   0.0000000   0.0000000  )

     number of k points=    56  Marzari-Vanderbilt smearing, width (Ry)=  0.0050
                       cart. coord. in units 2pi/alat
        k(    1) = (   0.0000000   0.0000000   0.0000000), wk =   0.0015026
        k(    2) = (   0.0000000   0.0000000   0.0909091), wk =   0.0090158
        k(    3) = (   0.0000000   0.0000000   0.1818182), wk =   0.0090158
        k(    4) = (   0.0000000   0.0000000   0.2727273), wk =   0.0090158
        k(    5) = (   0.0000000   0.0000000   0.3636364), wk =   0.0090158
        k(    6) = (   0.0000000   0.0000000   0.4545455), wk =   0.0090158
        k(    7) = (   0.0000000   0.0909091   0.0909091), wk =   0.0180316
        k(    8) = (   0.0000000   0.0909091   0.1818182), wk =   0.0360631
        k(    9) = (   0.0000000   0.0909091   0.2727273), wk =   0.0360631
        k(   10) = (   0.0000000   0.0909091   0.3636364), wk =   0.0360631
        k(   11) = (   0.0000000   0.0909091   0.4545455), wk =   0.0360631
        k(   12) = (   0.0000000   0.1818182   0.1818182), wk =   0.0180316
        k(   13) = (   0.0000000   0.1818182   0.2727273), wk =   0.0360631
        k(   14) = (   0.0000000   0.1818182   0.3636364), wk =   0.0360631
        k(   15) = (   0.0000000   0.1818182   0.4545455), wk =   0.0360631
        k(   16) = (   0.0000000   0.2727273   0.2727273), wk =   0.0180316
        k(   17) = (   0.0000000   0.2727273   0.3636364), wk =   0.0360631
        k(   18) = (   0.0000000   0.2727273   0.4545455), wk =   0.0360631
        k(   19) = (   0.0000000   0.3636364   0.3636364), wk =   0.0180316
        k(   20) = (   0.0000000   0.3636364   0.4545455), wk =   0.0360631
        k(   21) = (   0.0000000   0.4545455   0.4545455), wk =   0.0180316
        k(   22) = (   0.0909091   0.0909091   0.0909091), wk =   0.0120210
        k(   23) = (   0.0909091   0.0909091   0.1818182), wk =   0.0360631
        k(   24) = (   0.0909091   0.0909091   0.2727273), wk =   0.0360631
        k(   25) = (   0.0909091   0.0909091   0.3636364), wk =   0.0360631
        k(   26) = (   0.0909091   0.0909091   0.4545455), wk =   0.0360631
        k(   27) = (   0.0909091   0.1818182   0.1818182), wk =   0.0360631
        k(   28) = (   0.0909091   0.1818182   0.2727273), wk =   0.0721262
        k(   29) = (   0.0909091   0.1818182   0.3636364), wk =   0.0721262
        k(   30) = (   0.0909091   0.1818182   0.4545455), wk =   0.0721262
        k(   31) = (   0.0909091   0.2727273   0.2727273), wk =   0.0360631
        k(   32) = (   0.0909091   0.2727273   0.3636364), wk =   0.0721262
        k(   33) = (   0.0909091   0.2727273   0.4545455), wk =   0.0721262
        k(   34) = (   0.0909091   0.3636364   0.3636364), wk =   0.0360631
        k(   35) = (   0.0909091   0.3636364   0.4545455), wk =   0.0721262
        k(   36) = (   0.0909091   0.4545455   0.4545455), wk =   0.0360631
        k(   37) = (   0.1818182   0.1818182   0.1818182), wk =   0.0120210
        k(   38) = (   0.1818182   0.1818182   0.2727273), wk =   0.0360631
        k(   39) = (   0.1818182   0.1818182   0.3636364), wk =   0.0360631
        k(   40) = (   0.1818182   0.1818182   0.4545455), wk =   0.0360631
        k(   41) = (   0.1818182   0.2727273   0.2727273), wk =   0.0360631
        k(   42) = (   0.1818182   0.2727273   0.3636364), wk =   0.0721262
        k(   43) = (   0.1818182   0.2727273   0.4545455), wk =   0.0721262
        k(   44) = (   0.1818182   0.3636364   0.3636364), wk =   0.0360631
        k(   45) = (   0.1818182   0.3636364   0.4545455), wk =   0.0721262
        k(   46) = (   0.1818182   0.4545455   0.4545455), wk =   0.0360631
        k(   47) = (   0.2727273   0.2727273   0.2727273), wk =   0.0120210
        k(   48) = (   0.2727273   0.2727273   0.3636364), wk =   0.0360631
        k(   49) = (   0.2727273   0.2727273   0.4545455), wk =   0.0360631
        k(   50) = (   0.2727273   0.3636364   0.3636364), wk =   0.0360631
        k(   51) = (   0.2727273   0.3636364   0.4545455), wk =   0.0721262
        k(   52) = (   0.2727273   0.4545455   0.4545455), wk =   0.0360631
        k(   53) = (   0.3636364   0.3636364   0.3636364), wk =   0.0120210
        k(   54) = (   0.3636364   0.3636364   0.4545455), wk =   0.0360631
        k(   55) = (   0.3636364   0.4545455   0.4545455), wk =   0.0360631
        k(   56) = (   0.4545455   0.4545455   0.4545455), wk =   0.0120210

     Dense  grid:   202837 G-vectors     FFT dimensions: (  75,  75,  75)

     Smooth grid:    31103 G-vectors     FFT dimensions: (  40,  40,  40)

     Estimated max dynamical RAM per process >     107.31 MB

     Estimated total dynamical RAM >     858.46 MB

     Check: negative core charge=   -0.000002

     Initial potential from superposition of free atoms

     starting charge      26.9995, renormalised to      28.0000

     negative rho (up, down):  1.334E-03 0.000E+00
     Starting wfcs are   23 randomized atomic wfcs
     Checking if some PAW data can be deallocated... 

     total cpu time spent up to now is        1.4 secs

     per-process dynamical memory:   134.6 Mb

     Self-consistent Calculation

     iteration #  1     ecut=   124.00 Ry     beta= 0.70
     Davidson diagonalization with overlap
     ethr =  1.00E-02,  avg # of iterations =  2.1

     negative rho (up, down):  6.686E-05 0.000E+00

     total cpu time spent up to now is        2.4 secs

     total energy              =    -435.42124972 Ry
     estimated scf accuracy    <      16.81755113 Ry

     iteration #  2     ecut=   124.00 Ry     beta= 0.70
     Davidson diagonalization with overlap
     ethr =  1.00E-02,  avg # of iterations =  6.0

     negative rho (up, down):  3.730E-05 0.000E+00

     total cpu time spent up to now is        4.1 secs

     total energy              =    -448.51869241 Ry
     estimated scf accuracy    <      63.89816093 Ry

     iteration #  3     ecut=   124.00 Ry     beta= 0.70
     Davidson diagonalization with overlap
     ethr =  1.00E-02,  avg # of iterations =  3.1

     negative rho (up, down):  2.633E-04 0.000E+00

     total cpu time spent up to now is        5.4 secs

     total energy              =    -448.54050581 Ry
     estimated scf accuracy    <      16.20888443 Ry

     iteration #  4     ecut=   124.00 Ry     beta= 0.70
     Davidson diagonalization with overlap
     ethr =  1.00E-02,  avg # of iterations =  2.1

     negative rho (up, down):  2.851E-04 0.000E+00

     total cpu time spent up to now is        6.4 secs

     total energy              =    -449.08777149 Ry
     estimated scf accuracy    <       4.32391491 Ry

     iteration #  5     ecut=   124.00 Ry     beta= 0.70
     Davidson diagonalization with overlap
     ethr =  1.00E-02,  avg # of iterations =  1.0

     negative rho (up, down):  2.700E-04 0.000E+00

     total cpu time spent up to now is        7.4 secs

     total energy              =    -449.06320308 Ry
     estimated scf accuracy    <       4.02767702 Ry

     iteration #  6     ecut=   124.00 Ry     beta= 0.70
     Davidson diagonalization with overlap
     ethr =  1.00E-02,  avg # of iterations =  1.0

     negative rho (up, down):  8.429E-04 0.000E+00

     total cpu time spent up to now is        8.3 secs

     total energy              =    -448.18303385 Ry
     estimated scf accuracy    <       3.42191087 Ry

     iteration #  7     ecut=   124.00 Ry     beta= 0.70
     Davidson diagonalization with overlap
     ethr =  1.00E-02,  avg # of iterations =  2.1

     negative rho (up, down):  8.856E-04 0.000E+00

     total cpu time spent up to now is        9.3 secs

     total energy              =    -448.58434889 Ry
     estimated scf accuracy    <       0.50642991 Ry

     iteration #  8     ecut=   124.00 Ry     beta= 0.70
     Davidson diagonalization with overlap
     ethr =  1.81E-03,  avg # of iterations =  1.9

     negative rho (up, down):  1.180E-03 0.000E+00

     total cpu time spent up to now is       10.3 secs

     total energy              =    -448.60676037 Ry
     estimated scf accuracy    <       0.39020349 Ry

     iteration #  9     ecut=   124.00 Ry     beta= 0.70
     Davidson diagonalization with overlap
     ethr =  1.39E-03,  avg # of iterations =  2.2

     negative rho (up, down):  1.016E-03 0.000E+00

     total cpu time spent up to now is       11.4 secs

     total energy              =    -448.61666590 Ry
     estimated scf accuracy    <       0.58814149 Ry

     iteration # 10     ecut=   124.00 Ry     beta= 0.70
     Davidson diagonalization with overlap
     ethr =  1.39E-03,  avg # of iterations =  1.0

     negative rho (up, down):  8.839E-04 0.000E+00

     total cpu time spent up to now is       12.3 secs

     total energy              =    -448.58646965 Ry
     estimated scf accuracy    <       0.23423223 Ry

     iteration # 11     ecut=   124.00 Ry     beta= 0.70
     Davidson diagonalization with overlap
     ethr =  8.37E-04,  avg # of iterations =  1.1

     negative rho (up, down):  8.294E-04 0.000E+00

     total cpu time spent up to now is       13.3 secs

     total energy              =    -448.57720648 Ry
     estimated scf accuracy    <       0.07768498 Ry

     iteration # 12     ecut=   124.00 Ry     beta= 0.70
     Davidson diagonalization with overlap
     ethr =  2.77E-04,  avg # of iterations =  2.3

     negative rho (up, down):  8.309E-04 0.000E+00

     total cpu time spent up to now is       14.3 secs

     total energy              =    -448.59055607 Ry
     estimated scf accuracy    <       0.01849313 Ry

     iteration # 13     ecut=   124.00 Ry     beta= 0.70
     Davidson diagonalization with overlap
     ethr =  6.60E-05,  avg # of iterations =  3.9

     negative rho (up, down):  7.158E-04 0.000E+00

     total cpu time spent up to now is       15.3 secs

     total energy              =    -448.61187638 Ry
     estimated scf accuracy    <       0.17411830 Ry

     iteration # 14     ecut=   124.00 Ry     beta= 0.70
     Davidson diagonalization with overlap
     ethr =  6.60E-05,  avg # of iterations =  2.6

     negative rho (up, down):  9.119E-04 0.000E+00

     total cpu time spent up to now is       16.3 secs

     total energy              =    -448.58048603 Ry
     estimated scf accuracy    <       0.41372234 Ry

     iteration # 15     ecut=   124.00 Ry     beta= 0.70
     Davidson diagonalization with overlap
     ethr =  6.60E-05,  avg # of iterations =  3.6

     negative rho (up, down):  9.224E-04 0.000E+00

     total cpu time spent up to now is       17.5 secs

     total energy              =    -448.58430900 Ry
     estimated scf accuracy    <       0.07367179 Ry

     iteration # 16     ecut=   124.00 Ry     beta= 0.70
     Davidson diagonalization with overlap
     ethr =  6.60E-05,  avg # of iterations =  1.3

     negative rho (up, down):  1.010E-03 0.000E+00

     total cpu time spent up to now is       18.4 secs

     total energy              =    -448.58050412 Ry
     estimated scf accuracy    <       0.02389172 Ry

     iteration # 17     ecut=   124.00 Ry     beta= 0.70
     Davidson diagonalization with overlap
     ethr =  6.60E-05,  avg # of iterations =  3.0

     negative rho (up, down):  8.960E-04 0.000E+00

     total cpu time spent up to now is       19.4 secs

     total energy              =    -448.58223233 Ry
     estimated scf accuracy    <       0.01160484 Ry

     iteration # 18     ecut=   124.00 Ry     beta= 0.70
     Davidson diagonalization with overlap
     ethr =  4.14E-05,  avg # of iterations =  2.9

     negative rho (up, down):  9.686E-04 0.000E+00

     total cpu time spent up to now is       20.5 secs

     total energy              =    -448.58332727 Ry
     estimated scf accuracy    <       0.00964617 Ry

     iteration # 19     ecut=   124.00 Ry     beta= 0.70
     Davidson diagonalization with overlap
     ethr =  3.45E-05,  avg # of iterations =  1.3

     negative rho (up, down):  9.566E-04 0.000E+00

     total cpu time spent up to now is       21.4 secs

     total energy              =    -448.58415740 Ry
     estimated scf accuracy    <       0.00014448 Ry

     iteration # 20     ecut=   124.00 Ry     beta= 0.70
     Davidson diagonalization with overlap
     ethr =  5.16E-07,  avg # of iterations =  4.5

     negative rho (up, down):  9.569E-04 0.000E+00

     total cpu time spent up to now is       22.6 secs

     total energy              =    -448.58421188 Ry
     estimated scf accuracy    <       0.00005282 Ry

     iteration # 21     ecut=   124.00 Ry     beta= 0.70
     Davidson diagonalization with overlap
     ethr =  1.89E-07,  avg # of iterations =  1.4

     negative rho (up, down):  9.566E-04 0.000E+00

     total cpu time spent up to now is       23.6 secs

     total energy              =    -448.58421267 Ry
     estimated scf accuracy    <       0.00000949 Ry

     iteration # 22     ecut=   124.00 Ry     beta= 0.70
     Davidson diagonalization with overlap
     ethr =  3.39E-08,  avg # of iterations =  3.1

     negative rho (up, down):  9.566E-04 0.000E+00

     total cpu time spent up to now is       24.6 secs

     total energy              =    -448.58421413 Ry
     estimated scf accuracy    <       0.00000004 Ry

     iteration # 23     ecut=   124.00 Ry     beta= 0.70
     Davidson diagonalization with overlap
     ethr =  1.32E-10,  avg # of iterations =  7.1

     negative rho (up, down):  9.563E-04 0.000E+00

     total cpu time spent up to now is       26.4 secs

     total energy              =    -448.58421428 Ry
     estimated scf accuracy    <       0.00000045 Ry

     iteration # 24     ecut=   124.00 Ry     beta= 0.70
     Davidson diagonalization with overlap
     ethr =  1.32E-10,  avg # of iterations =  3.9

     negative rho (up, down):  9.564E-04 0.000E+00

     total cpu time spent up to now is       27.6 secs

     total energy              =    -448.58421428 Ry
     estimated scf accuracy    <       0.00000008 Ry

     iteration # 25     ecut=   124.00 Ry     beta= 0.70
     Davidson diagonalization with overlap
     ethr =  1.32E-10,  avg # of iterations =  2.6

     negative rho (up, down):  9.564E-04 0.000E+00

     total cpu time spent up to now is       28.6 secs

     End of self-consistent calculation

          k = 0.0000 0.0000 0.0000 (  3887 PWs)   bands (ev):

   -68.5928 -38.4509 -34.6553 -34.6553 -34.6553 -14.5356 -14.5356 -14.5356
    10.6965  14.3348  14.3348  17.2556  17.2556  17.2556  19.6857  19.6857
    21.7078  21.7078

          k = 0.0000 0.0000 0.0909 (  3867 PWs)   bands (ev):

   -68.5925 -38.4486 -34.6579 -34.6548 -34.6548 -14.5682 -14.5337 -14.5337
    10.8744  14.4209  14.4309  17.2425  17.2425  17.2951  19.5743  19.7280
    21.4451  21.4451

          k = 0.0000 0.0000 0.1818 (  3871 PWs)   bands (ev):

   -68.5916 -38.4425 -34.6652 -34.6536 -34.6536 -14.6551 -14.5286 -14.5286
    11.3897  14.6730  14.6818  17.2127  17.2127  17.4056  19.2526  19.8251
    20.8349  20.8349

          k = 0.0000 0.0000 0.2727 (  3868 PWs)   bands (ev):

   -68.5905 -38.4344 -34.6745 -34.6520 -34.6520 -14.7675 -14.5219 -14.5219
    12.1866  14.9743  15.0703  17.1880  17.1880  17.5629  18.7609  19.8689
    20.1601  20.1601

          k = 0.0000 0.0000 0.3636 (  3876 PWs)   bands (ev):

   -68.5895 -38.4270 -34.6831 -34.6506 -34.6506 -14.8693 -14.5158 -14.5158
    13.1637  15.1192  15.5634  17.1848  17.1848  17.7232  18.1779  19.6074
    19.6074  19.6861

          k = 0.0000 0.0000 0.4545 (  3896 PWs)   bands (ev):

   -68.5888 -38.4226 -34.6881 -34.6497 -34.6497 -14.9291 -14.5121 -14.5121
    14.1378  14.8899  16.0076  17.1957  17.1957  17.6789  17.8279  19.2941
    19.2941  19.3706

          k = 0.0000 0.0909 0.0909 (  3861 PWs)   bands (ev):

   -68.5922 -38.4462 -34.6591 -34.6561 -34.6543 -14.5697 -14.5623 -14.5317
    11.0486  14.5048  14.5255  17.1557  17.2213  17.3964  19.5585  19.6971
    21.1563  21.1832

          k = 0.0000 0.0909 0.1818 (  3865 PWs)   bands (ev):

   -68.5913 -38.4396 -34.6659 -34.6561 -34.6532 -14.6525 -14.5596 -14.5263
    11.5519  14.7332  14.7873  17.0717  17.1697  17.5199  19.3109  19.7820
    20.5896  20.6224

          k = 0.0000 0.0909 0.2727 (  3876 PWs)   bands (ev):

   -68.5902 -38.4309 -34.6754 -34.6553 -34.6516 -14.7635 -14.5520 -14.5193
    12.3264  15.0304  15.1522  17.0270  17.1121  17.6090  18.8921  19.7581
    20.0679  20.1002

          k = 0.0000 0.0909 0.3636 (  3872 PWs)   bands (ev):

   -68.5891 -38.4230 -34.6842 -34.6545 -34.6502 -14.8642 -14.5450 -14.5129
    13.2678  15.1695  15.6015  17.0348  17.0599  17.6145  18.4150  19.3283
    19.7523  19.9235

          k = 0.0000 0.0909 0.4545 (  3884 PWs)   bands (ev):

   -68.5885 -38.4183 -34.6893 -34.6541 -34.6494 -14.9234 -14.5408 -14.5091
    14.1939  14.9345  16.0046  16.9873  17.0760  17.5550  18.0748  19.0267
    19.6135  19.7286

          k = 0.0000 0.1818 0.1818 (  3876 PWs)   bands (ev):

   -68.5905 -38.4318 -34.6696 -34.6610 -34.6520 -14.6541 -14.6335 -14.5203
    12.0160  14.8870  15.0812  16.8888  17.0719  17.6021  19.3669  19.7381
    20.0520  20.2825

          k = 0.0000 0.1818 0.2727 (  3861 PWs)   bands (ev):

   -68.5893 -38.4216 -34.6781 -34.6637 -34.6505 -14.7531 -14.6319 -14.5124
    12.7139  15.0682  15.4791  16.7623  16.9803  17.5231  19.1822  19.4873
    19.9051  20.0963

          k = 0.0000 0.1818 0.3636 (  3877 PWs)   bands (ev):

   -68.5883 -38.4122 -34.6871 -34.6650 -34.6492 -14.8505 -14.6226 -14.5052
    13.5256  15.1300  15.8815  16.7256  16.9540  17.3022  18.8649  19.1367
    20.0447  20.1190

          k = 0.0000 0.1818 0.4545 (  3885 PWs)   bands (ev):

   -68.5877 -38.4066 -34.6926 -34.6656 -34.6484 -14.9080 -14.6170 -14.5008
    14.2640  14.9266  16.1689  16.7811  16.9949  17.0713  18.6884  18.8841
    20.0768  20.2221

          k = 0.0000 0.2727 0.2727 (  3862 PWs)   bands (ev):

   -68.5882 -38.4093 -34.6834 -34.6730 -34.6491 -14.7493 -14.7253 -14.5034
    13.2525  15.0507  15.9535  16.5442  16.9398  17.2427  19.2569  19.4213
    19.8050  20.2786

          k = 0.0000 0.2727 0.3636 (  3874 PWs)   bands (ev):

   -68.5872 -38.3980 -34.6913 -34.6785 -34.6478 -14.8328 -14.7230 -14.4950
    13.7941  14.9418  16.4201  16.4299  16.9023  17.1139  19.0694  19.4011
    19.9872  20.5686

          k = 0.0000 0.2727 0.4545 (  3872 PWs)   bands (ev):

   -68.5866 -38.3912 -34.6969 -34.6808 -34.6471 -14.8878 -14.7157 -14.4900
    14.1876  14.7690  16.4446  16.6261  16.6767  17.4896  18.8194  19.3519
    20.2195  20.8288

          k = 0.0000 0.3636 0.3636 (  3868 PWs)   bands (ev):

   -68.5862 -38.3849 -34.6960 -34.6899 -34.6466 -14.8222 -14.8084 -14.4857
    13.9542  14.7311  16.2348  16.5389  17.0530  17.5427  19.2083  19.7750
    19.8207  20.9926

          k = 0.0000 0.3636 0.4545 (  3873 PWs)   bands (ev):

   -68.5855 -38.3771 -34.7010 -34.6946 -34.6458 -14.8693 -14.8052 -14.4801
    14.0135  14.5948  16.1812  16.2876  17.4401  18.2129  18.9639  19.8426
    20.0481  21.3105

          k = 0.0000 0.4545 0.4545 (  3872 PWs)   bands (ev):

   -68.5849 -38.3686 -34.7036 -34.7027 -34.6451 -14.8590 -14.8571 -14.4742
    13.8885  14.4917  16.0548  16.0906  18.1569  18.6645  19.3796  19.5730
    20.1162  21.5950

          k = 0.0909 0.0909 0.0909 (  3863 PWs)   bands (ev):

   -68.5919 -38.4436 -34.6587 -34.6587 -34.6545 -14.5704 -14.5604 -14.5604
    11.2196  14.6029  14.6029  17.1324  17.1324  17.4782  19.6136  19.6136
    20.7200  21.4237

          k = 0.0909 0.0909 0.1818 (  3870 PWs)   bands (ev):

   -68.5910 -38.4366 -34.6662 -34.6574 -34.6544 -14.6497 -14.5593 -14.5552
    11.7127  14.8283  14.8573  17.0169  17.0708  17.5653  19.3727  19.7419
    20.2249  20.8110

          k = 0.0909 0.0909 0.2727 (  3883 PWs)   bands (ev):

   -68.5899 -38.4274 -34.6761 -34.6559 -34.6542 -14.7596 -14.5504 -14.5484
    12.4680  15.1444  15.1781  16.9568  16.9872  17.5603  19.0096  19.6964
    20.0246  20.1472

          k = 0.0909 0.0909 0.3636 (  3875 PWs)   bands (ev):

   -68.5888 -38.4190 -34.6851 -34.6544 -34.6540 -14.8593 -14.5422 -14.5420
    13.3784  15.2579  15.6013  16.8839  16.9911  17.4687  18.6051  19.4080
    19.6191  20.1325

          k = 0.0909 0.0909 0.4545 (  3880 PWs)   bands (ev):

   -68.5882 -38.4140 -34.6904 -34.6539 -34.6535 -14.9180 -14.5385 -14.5371
    14.2634  15.0026  15.9721  16.7542  17.1148  17.3732  18.3163  19.1197
    19.3294  20.2448

          k = 0.0909 0.1818 0.1818 (  3875 PWs)   bands (ev):

   -68.5901 -38.4285 -34.6691 -34.6621 -34.6547 -14.6504 -14.6315 -14.5507
    12.1723  14.9967  15.1330  16.8505  16.9577  17.5279  19.4403  19.7079
    19.9314  20.5142

          k = 0.0909 0.1818 0.2727 (  3878 PWs)   bands (ev):

   -68.5890 -38.4180 -34.6781 -34.6640 -34.6541 -14.7493 -14.6292 -14.5423
    12.8604  15.1927  15.4987  16.7173  16.8577  17.3372  19.2778  19.6152
    19.9406  20.1602

          k = 0.0909 0.1818 0.3636 (  3874 PWs)   bands (ev):

   -68.5880 -38.4083 -34.6876 -34.6648 -34.6532 -14.8462 -14.6199 -14.5344
    13.6546  15.2634  15.8319  16.6426  16.8533  17.1437  19.0254  19.2593
    19.7995  20.4420

          k = 0.0909 0.1818 0.4545 (  3876 PWs)   bands (ev):

   -68.5874 -38.4026 -34.6932 -34.6652 -34.6526 -14.9034 -14.6142 -14.5297
    14.3698  15.0421  16.0653  16.5778  16.9558  17.0926  18.8465  18.9592
    19.5909  20.8525

          k = 0.0909 0.2727 0.2727 (  3873 PWs)   bands (ev):

   -68.5879 -38.4056 -34.6828 -34.6735 -34.6530 -14.7450 -14.7233 -14.5330
    13.4042  15.1802  15.9631  16.5047  16.8012  17.0221  19.3797  19.5831
    19.7869  20.4223

          k = 0.0909 0.2727 0.3636 (  3873 PWs)   bands (ev):

   -68.5869 -38.3943 -34.6911 -34.6784 -34.6519 -14.8292 -14.7204 -14.5244
    13.9426  15.0725  16.3436  16.3970  16.7854  16.9694  19.1556  19.4952
    19.8626  20.8557

          k = 0.0909 0.2727 0.4545 (  3861 PWs)   bands (ev):

   -68.5862 -38.3875 -34.6971 -34.6803 -34.6513 -14.8842 -14.7132 -14.5192
    14.3211  14.9000  16.3575  16.4162  16.7479  17.3894  18.8594  19.4605
    19.7932  21.3604

          k = 0.0909 0.3636 0.3636 (  3877 PWs)   bands (ev):

   -68.5858 -38.3813 -34.6955 -34.6899 -34.6507 -14.8188 -14.8063 -14.5151
    14.1043  14.8612  16.2037  16.4467  17.0095  17.3613  19.1664  19.6925
    19.8793  21.3223

          k = 0.0909 0.3636 0.4545 (  3874 PWs)   bands (ev):

   -68.5852 -38.3736 -34.7006 -34.6942 -34.6500 -14.8666 -14.8030 -14.5095
    14.1538  14.7284  16.1483  16.2351  17.3644  18.0277  18.9165  19.6566
    19.9772  21.5601

          k = 0.0909 0.4545 0.4545 (  3879 PWs)   bands (ev):

   -68.5846 -38.3652 -34.7030 -34.7022 -34.6493 -14.8568 -14.8551 -14.5038
    14.0297  14.6256  16.0324  16.0635  18.0992  18.5243  19.1050  19.2148
    20.1966  21.7918

          k = 0.1818 0.1818 0.1818 (  3863 PWs)   bands (ev):

   -68.5893 -38.4198 -34.6678 -34.6678 -34.6592 -14.6460 -14.6261 -14.6261
    12.6155  15.2800  15.2800  16.7483  16.7483  17.2547  19.6189  19.6189
    19.9938  20.7680

          k = 0.1818 0.1818 0.2727 (  3861 PWs)   bands (ev):

   -68.5882 -38.4084 -34.6785 -34.6661 -34.6618 -14.7394 -14.6245 -14.6191
    13.2673  15.4964  15.5756  16.6065  16.6119  16.9261  19.4837  19.7052
    20.1310  20.3152

          k = 0.1818 0.1818 0.3636 (  3866 PWs)   bands (ev):

   -68.5871 -38.3979 -34.6888 -34.6645 -34.6636 -14.8346 -14.6126 -14.6123
    13.9894  15.5690  15.7371  16.4692  16.6470  16.8503  19.3410  19.4390
    19.6354  20.9032

          k = 0.1818 0.1818 0.4545 (  3874 PWs)   bands (ev):

   -68.5865 -38.3917 -34.6951 -34.6646 -34.6636 -14.8908 -14.6087 -14.6048
    14.5986  15.2539  15.9293  16.3486  16.7724  17.0476  19.0162  19.2588
    19.3540  21.2821

          k = 0.1818 0.2727 0.2727 (  3876 PWs)   bands (ev):

   -68.5870 -38.3958 -34.6814 -34.6750 -34.6633 -14.7335 -14.7178 -14.6118
    13.8280  15.5327  15.9842  16.4037  16.4900  16.5736  19.5130  19.7075
    20.0235  20.8179

          k = 0.1818 0.2727 0.3636 (  3871 PWs)   bands (ev):

   -68.5860 -38.3843 -34.6908 -34.6781 -34.6630 -14.8196 -14.7133 -14.6026
    14.3549  15.4145  16.1323  16.2884  16.5582  16.6730  19.2730  19.5311
    19.9105  21.1233

          k = 0.1818 0.2727 0.4545 (  3865 PWs)   bands (ev):

   -68.5854 -38.3774 -34.6975 -34.6791 -34.6626 -14.8744 -14.7065 -14.5969
    14.6806  15.2213  16.0976  16.2363  16.6552  17.1537  18.9075  19.3589
    19.8146  21.3562

          k = 0.1818 0.3636 0.3636 (  3879 PWs)   bands (ev):

   -68.5850 -38.3717 -34.6939 -34.6898 -34.6619 -14.8097 -14.8008 -14.5934
    14.5328  15.1998  16.1265  16.2493  16.8743  16.9131  19.1387  19.3896
    20.1874  21.2930

          k = 0.1818 0.3636 0.4545 (  3872 PWs)   bands (ev):

   -68.5844 -38.3641 -34.6998 -34.6928 -34.6612 -14.8593 -14.7969 -14.5880
    14.5518  15.0767  16.0703  16.1219  17.1122  17.5682  18.8517  19.2232
    20.2679  21.5466

          k = 0.1818 0.4545 0.4545 (  3872 PWs)   bands (ev):

   -68.5838 -38.3563 -34.7013 -34.7008 -34.6604 -14.8509 -14.8496 -14.5826
    14.4338  14.9823  15.9797  16.0028  17.8191  17.9415  18.7394  18.9227
    20.4672  21.8498

          k = 0.2727 0.2727 0.2727 (  3860 PWs)   bands (ev):

   -68.5859 -38.3830 -34.6795 -34.6795 -34.6741 -14.7216 -14.7105 -14.7105
    14.4106  15.9986  15.9986  16.0747  16.2832  16.2832  19.5249  19.5249
    20.5133  20.5133

          k = 0.2727 0.2727 0.3636 (  3870 PWs)   bands (ev):

   -68.5849 -38.3711 -34.6908 -34.6778 -34.6770 -14.8071 -14.7039 -14.7036
    14.8920  15.6866  15.9912  16.1880  16.2928  16.5165  19.2642  19.3051
    20.3530  21.0327

          k = 0.2727 0.2727 0.4545 (  3866 PWs)   bands (ev):

   -68.5843 -38.3641 -34.6981 -34.6780 -34.6767 -14.8616 -14.6999 -14.6954
    15.0671  15.4678  15.9735  16.1411  16.4953  16.9786  18.8482  19.1719
    20.2963  21.3906

          k = 0.2727 0.3636 0.3636 (  3876 PWs)   bands (ev):

   -68.5839 -38.3590 -34.6919 -34.6897 -34.6765 -14.7978 -14.7936 -14.6949
    15.1613  15.5566  16.0433  16.1528  16.4064  16.6536  19.0890  19.0956
    20.6715  21.2409

          k = 0.2727 0.3636 0.4545 (  3864 PWs)   bands (ev):

   -68.5833 -38.3518 -34.6987 -34.6910 -34.6758 -14.8498 -14.7890 -14.6895
    15.1170  15.4718  16.0022  16.0702  16.7118  17.0826  18.7438  19.0025
    20.7370  21.5827

          k = 0.2727 0.4545 0.4545 (  3877 PWs)   bands (ev):

   -68.5827 -38.3445 -34.6992 -34.6989 -34.6749 -14.8431 -14.8425 -14.6847
    15.0345  15.4320  15.9347  15.9662  17.2541  17.2776  18.5634  18.8383
    20.9241  21.8885

          k = 0.3636 0.3636 0.3636 (  3884 PWs)   bands (ev):

   -68.5829 -38.3473 -34.6900 -34.6900 -34.6895 -14.7869 -14.7869 -14.7868
    15.5334  15.9413  16.0012  16.0012  16.3964  16.3964  18.9102  18.9102
    21.2466  21.2466

          k = 0.3636 0.3636 0.4545 (  3861 PWs)   bands (ev):

   -68.5823 -38.3404 -34.6978 -34.6896 -34.6889 -14.8411 -14.7830 -14.7803
    15.5325  15.7226  16.0387  16.1751  16.4016  16.7593  18.6429  18.8290
    21.2599  21.6786

          k = 0.3636 0.4545 0.4545 (  3877 PWs)   bands (ev):

   -68.5817 -38.3336 -34.6973 -34.6972 -34.6882 -14.8359 -14.8359 -14.7773
    15.6447  15.8134  15.9447  16.0648  16.6933  16.7427  18.5196  18.6911
    21.4931  21.9194

          k = 0.4545 0.4545 0.4545 (  3876 PWs)   bands (ev):

   -68.5811 -38.3271 -34.6962 -34.6961 -34.6961 -14.8320 -14.8320 -14.8315
    15.8902  16.0457  16.0457  16.3508  16.3508  16.3868  18.5092  18.5092
    21.9370  21.9370

     the Fermi energy is    18.2578 ev

!    total energy              =    -448.58421429 Ry
     estimated scf accuracy    <          1.3E-09 Ry
     smearing contrib. (-TS)   =       0.00002040 Ry
     internal energy E=F+TS    =    -448.58423469 Ry

     The total energy is F=E-TS. E is the sum of the following terms:
     one-electron contribution =    -147.21761019 Ry
     hartree contribution      =      90.23067017 Ry
     xc contribution           =     -52.94229313 Ry
     ewald contribution        =    -262.50048229 Ry
     one-center paw contrib.   =     -76.15451924 Ry

     convergence has been achieved in  25 iterations

     negative rho (up, down):  9.564E-04 0.000E+00

     Forces acting on atoms (cartesian axes, Ry/au):

     atom    1 type  1   force =     0.00000000    0.00000000    0.00000000
     atom    2 type  2   force =     0.00000000    0.00000000    0.00000000

     Total force =     0.000000     Total SCF correction =     0.000000


     Computing stress (Cartesian axis) and pressure


     negative rho (up, down):  9.564E-04 0.000E+00
          total   stress  (Ry/bohr**3)                   (kbar)     P=       99.33
   0.00067524   0.00000000   0.00000000           99.33        0.00        0.00
   0.00000000   0.00067524   0.00000000            0.00       99.33        0.00
   0.00000000   0.00000000   0.00067524            0.00        0.00       99.33


     Writing all to output data dir ./TiFe.save/ :
     XML data file, charge density, pseudopotentials, collected wavefunctions

     init_run     :      1.11s CPU      1.16s WALL (       1 calls)
     electrons    :     25.81s CPU     27.30s WALL (       1 calls)
     forces       :      0.23s CPU      0.25s WALL (       1 calls)
     stress       :      1.37s CPU      1.43s WALL (       1 calls)

     Called by init_run:
     wfcinit      :      0.31s CPU      0.32s WALL (       1 calls)
     potinit      :      0.37s CPU      0.38s WALL (       1 calls)
     hinit0       :      0.25s CPU      0.26s WALL (       1 calls)

     Called by electrons:
     c_bands      :     15.85s CPU     16.24s WALL (      25 calls)
     sum_band     :      5.23s CPU      5.78s WALL (      25 calls)
     v_of_rho     :      0.57s CPU      0.61s WALL (      26 calls)
     newd         :      2.85s CPU      3.29s WALL (      26 calls)
     PAW_pot      :      1.39s CPU      1.44s WALL (      26 calls)
     mix_rho      :      0.06s CPU      0.07s WALL (      25 calls)

     Called by c_bands:
     init_us_2    :      0.44s CPU      0.46s WALL (    2968 calls)
     cegterg      :     15.06s CPU     15.40s WALL (    1400 calls)

     Called by *egterg:
     cdiaghg      :      1.77s CPU      1.81s WALL (    5151 calls)
     h_psi        :     11.36s CPU     11.64s WALL (    5207 calls)
     s_psi        :      0.31s CPU      0.32s WALL (    5207 calls)
     g_psi        :      0.07s CPU      0.07s WALL (    3751 calls)

     Called by h_psi:
     h_psi:calbec :      0.62s CPU      0.63s WALL (    5207 calls)
     vloc_psi     :     10.35s CPU     10.60s WALL (    5207 calls)
     add_vuspsi   :      0.33s CPU      0.34s WALL (    5207 calls)

     General routines
     calbec       :      0.90s CPU      0.92s WALL (    7559 calls)
     fft          :      0.45s CPU      0.52s WALL (     361 calls)
     ffts         :      0.29s CPU      0.29s WALL (      51 calls)
     fftw         :      9.80s CPU     10.03s WALL (  152036 calls)
     interpolate  :      0.30s CPU      0.31s WALL (      26 calls)

     Parallel routines

     PWSCF        :     28.84s CPU     30.61s WALL


   This run was terminated on:   0:39:48  25Oct2025            

=------------------------------------------------------------------------------=
   JOB DONE.
=------------------------------------------------------------------------------=
