
     Program PWSCF v.7.4 starts on 25Oct2025 at  0:44: 0 

     This program is part of the open-source Quantum ESPRESSO suite
     for quantum simulation of materials; please cite
         "P. Giannozzi et al., J. Phys.:Condens. Matter 21 395502 (2009);
         "P. Giannozzi et al., J. Phys.:Condens. Matter 29 465901 (2017);
         "P. Giannozzi et al., J. Chem. Phys. 152 154105 (2020);
          URL http://www.quantum-espresso.org", 
     in publications or presentations arising from this work. More details at
     http://www.quantum-espresso.org/quote

     Parallel version (MPI & OpenMP), running on       8 processor cores
     Number of MPI processes:                 8
     Threads/MPI process:                     1

     MPI processes distributed on     1 nodes
     210504 MiB available memory on the printing compute node when the environment starts

     Reading input from TiFe_17.in

     Current dimensions of program PWSCF are:
     Max number of different atomic species (ntypx) = 10
     Max number of k-points (npk) =  40000
     Max angular momentum in pseudopotentials (lmaxx) =  4
     file Fe.pbe-spn-kjpaw_psl.0.2.1.UPF: wavefunction(s)  3D renormalized

     IMPORTANT: XC functional enforced from input :
     Exchange-correlation= PBE
                           (   1   4   3   4   0   0   0)
     Any further DFT definition will be discarded
     Please, verify this is what you really want

     Message from routine setup:
     using ibrav=0 with symmetry is DISCOURAGED, use correct ibrav instead

     R & G space division:  proc/nbgrp/npool/nimage =       8
     Subspace diagonalization in iterative solution of the eigenvalue problem:
     a serial algorithm will be used


     Parallelization info
     --------------------
     sticks:   dense  smooth     PW     G-vecs:    dense   smooth      PW
     Min         550     157     45                27495     4175     657
     Max         551     158     47                27498     4176     658
     Sum        4405    1257    365               219967    33401    5257

     Using Slab Decomposition



     bravais-lattice index     =            0
     lattice parameter (alat)  =       5.6478  a.u.
     unit-cell volume          =     180.1502 (a.u.)^3
     number of atoms/cell      =            2
     number of atomic types    =            2
     number of electrons       =        28.00
     number of Kohn-Sham states=           18
     kinetic-energy cutoff     =     124.0000  Ry
     charge density cutoff     =    1736.0000  Ry
     scf convergence threshold =      1.0E-08
     mixing beta               =       0.7000
     number of iterations used =            8  plain     mixing
     Exchange-correlation= PBE
                           (   1   4   3   4   0   0   0)

     celldm(1)=   5.647787  celldm(2)=   0.000000  celldm(3)=   0.000000
     celldm(4)=   0.000000  celldm(5)=   0.000000  celldm(6)=   0.000000

     crystal axes: (cart. coord. in units of alat)
               a(1) = (   1.000000   0.000000   0.000000 )  
               a(2) = (   0.000000   1.000000   0.000000 )  
               a(3) = (   0.000000   0.000000   1.000000 )  

     reciprocal axes: (cart. coord. in units 2 pi/alat)
               b(1) = (  1.000000  0.000000  0.000000 )  
               b(2) = (  0.000000  1.000000  0.000000 )  
               b(3) = (  0.000000  0.000000  1.000000 )  


     PseudoPot. # 1 for Fe read from file:
     ../pseudos/Fe.pbe-spn-kjpaw_psl.0.2.1.UPF
     MD5 check sum: e86618425769142926afa95317d90200
     Pseudo is Projector augmented-wave + core cor, Zval = 16.0
     Generated using "atomic" code by A. Dal Corso  v.5.0.99 svn rev. 10869
     Shape of augmentation charge: PSQ
     Using radial grid of 1191 points,  6 beta functions with: 
                l(1) =   0
                l(2) =   0
                l(3) =   1
                l(4) =   1
                l(5) =   2
                l(6) =   2
     Q(r) pseudized with 0 coefficients 


     PseudoPot. # 2 for Ti read from file:
     ../pseudos/ti_pbe_v1.4.uspp.F.UPF
     MD5 check sum: 88a00a6731bd790ddea75d31a80cb452
     Pseudo is Ultrasoft + core correction, Zval = 12.0
     Generated by new atomic code, or converted to UPF format
     Using radial grid of  851 points,  6 beta functions with: 
                l(1) =   0
                l(2) =   0
                l(3) =   1
                l(4) =   1
                l(5) =   2
                l(6) =   2
     Q(r) pseudized with  6 coefficients,  rinner =    1.000   1.000   1.000
                                                       1.000   1.000

     atomic species   valence    mass     pseudopotential
     Fe               16.00    55.84500     Fe( 1.00)
     Ti               12.00    47.86700     Ti( 1.00)

     48 Sym. Ops., with inversion, found



   Cartesian axes

     site n.     atom                  positions (alat units)
         1        Fe     tau(   1) = (   0.5000000   0.5000000   0.5000000  )
         2        Ti     tau(   2) = (   0.0000000   0.0000000   0.0000000  )

     number of k points=    56  Marzari-Vanderbilt smearing, width (Ry)=  0.0050
                       cart. coord. in units 2pi/alat
        k(    1) = (   0.0000000   0.0000000   0.0000000), wk =   0.0015026
        k(    2) = (   0.0000000   0.0000000   0.0909091), wk =   0.0090158
        k(    3) = (   0.0000000   0.0000000   0.1818182), wk =   0.0090158
        k(    4) = (   0.0000000   0.0000000   0.2727273), wk =   0.0090158
        k(    5) = (   0.0000000   0.0000000   0.3636364), wk =   0.0090158
        k(    6) = (   0.0000000   0.0000000   0.4545455), wk =   0.0090158
        k(    7) = (   0.0000000   0.0909091   0.0909091), wk =   0.0180316
        k(    8) = (   0.0000000   0.0909091   0.1818182), wk =   0.0360631
        k(    9) = (   0.0000000   0.0909091   0.2727273), wk =   0.0360631
        k(   10) = (   0.0000000   0.0909091   0.3636364), wk =   0.0360631
        k(   11) = (   0.0000000   0.0909091   0.4545455), wk =   0.0360631
        k(   12) = (   0.0000000   0.1818182   0.1818182), wk =   0.0180316
        k(   13) = (   0.0000000   0.1818182   0.2727273), wk =   0.0360631
        k(   14) = (   0.0000000   0.1818182   0.3636364), wk =   0.0360631
        k(   15) = (   0.0000000   0.1818182   0.4545455), wk =   0.0360631
        k(   16) = (   0.0000000   0.2727273   0.2727273), wk =   0.0180316
        k(   17) = (   0.0000000   0.2727273   0.3636364), wk =   0.0360631
        k(   18) = (   0.0000000   0.2727273   0.4545455), wk =   0.0360631
        k(   19) = (   0.0000000   0.3636364   0.3636364), wk =   0.0180316
        k(   20) = (   0.0000000   0.3636364   0.4545455), wk =   0.0360631
        k(   21) = (   0.0000000   0.4545455   0.4545455), wk =   0.0180316
        k(   22) = (   0.0909091   0.0909091   0.0909091), wk =   0.0120210
        k(   23) = (   0.0909091   0.0909091   0.1818182), wk =   0.0360631
        k(   24) = (   0.0909091   0.0909091   0.2727273), wk =   0.0360631
        k(   25) = (   0.0909091   0.0909091   0.3636364), wk =   0.0360631
        k(   26) = (   0.0909091   0.0909091   0.4545455), wk =   0.0360631
        k(   27) = (   0.0909091   0.1818182   0.1818182), wk =   0.0360631
        k(   28) = (   0.0909091   0.1818182   0.2727273), wk =   0.0721262
        k(   29) = (   0.0909091   0.1818182   0.3636364), wk =   0.0721262
        k(   30) = (   0.0909091   0.1818182   0.4545455), wk =   0.0721262
        k(   31) = (   0.0909091   0.2727273   0.2727273), wk =   0.0360631
        k(   32) = (   0.0909091   0.2727273   0.3636364), wk =   0.0721262
        k(   33) = (   0.0909091   0.2727273   0.4545455), wk =   0.0721262
        k(   34) = (   0.0909091   0.3636364   0.3636364), wk =   0.0360631
        k(   35) = (   0.0909091   0.3636364   0.4545455), wk =   0.0721262
        k(   36) = (   0.0909091   0.4545455   0.4545455), wk =   0.0360631
        k(   37) = (   0.1818182   0.1818182   0.1818182), wk =   0.0120210
        k(   38) = (   0.1818182   0.1818182   0.2727273), wk =   0.0360631
        k(   39) = (   0.1818182   0.1818182   0.3636364), wk =   0.0360631
        k(   40) = (   0.1818182   0.1818182   0.4545455), wk =   0.0360631
        k(   41) = (   0.1818182   0.2727273   0.2727273), wk =   0.0360631
        k(   42) = (   0.1818182   0.2727273   0.3636364), wk =   0.0721262
        k(   43) = (   0.1818182   0.2727273   0.4545455), wk =   0.0721262
        k(   44) = (   0.1818182   0.3636364   0.3636364), wk =   0.0360631
        k(   45) = (   0.1818182   0.3636364   0.4545455), wk =   0.0721262
        k(   46) = (   0.1818182   0.4545455   0.4545455), wk =   0.0360631
        k(   47) = (   0.2727273   0.2727273   0.2727273), wk =   0.0120210
        k(   48) = (   0.2727273   0.2727273   0.3636364), wk =   0.0360631
        k(   49) = (   0.2727273   0.2727273   0.4545455), wk =   0.0360631
        k(   50) = (   0.2727273   0.3636364   0.3636364), wk =   0.0360631
        k(   51) = (   0.2727273   0.3636364   0.4545455), wk =   0.0721262
        k(   52) = (   0.2727273   0.4545455   0.4545455), wk =   0.0360631
        k(   53) = (   0.3636364   0.3636364   0.3636364), wk =   0.0120210
        k(   54) = (   0.3636364   0.3636364   0.4545455), wk =   0.0360631
        k(   55) = (   0.3636364   0.4545455   0.4545455), wk =   0.0360631
        k(   56) = (   0.4545455   0.4545455   0.4545455), wk =   0.0120210

     Dense  grid:   219967 G-vectors     FFT dimensions: (  75,  75,  75)

     Smooth grid:    33401 G-vectors     FFT dimensions: (  45,  45,  45)

     Estimated max dynamical RAM per process >     115.48 MB

     Estimated total dynamical RAM >     923.81 MB

     Check: negative core charge=   -0.000001

     Initial potential from superposition of free atoms

     starting charge      26.9995, renormalised to      28.0000

     negative rho (up, down):  1.369E-03 0.000E+00
     Starting wfcs are   23 randomized atomic wfcs
     Checking if some PAW data can be deallocated... 

     total cpu time spent up to now is        1.3 secs

     per-process dynamical memory:   135.9 Mb

     Self-consistent Calculation

     iteration #  1     ecut=   124.00 Ry     beta= 0.70
     Davidson diagonalization with overlap
     ethr =  1.00E-02,  avg # of iterations =  2.2

     negative rho (up, down):  1.046E-04 0.000E+00

     total cpu time spent up to now is        2.8 secs

     total energy              =    -433.92587001 Ry
     estimated scf accuracy    <      18.63081113 Ry

     iteration #  2     ecut=   124.00 Ry     beta= 0.70
     Davidson diagonalization with overlap
     ethr =  1.00E-02,  avg # of iterations =  6.1

     negative rho (up, down):  1.785E-05 0.000E+00

     total cpu time spent up to now is        5.1 secs

     total energy              =    -448.34233715 Ry
     estimated scf accuracy    <      70.54850157 Ry

     iteration #  3     ecut=   124.00 Ry     beta= 0.70
     Davidson diagonalization with overlap
     ethr =  1.00E-02,  avg # of iterations =  3.1

     negative rho (up, down):  1.756E-04 0.000E+00

     total cpu time spent up to now is        6.8 secs

     total energy              =    -448.75707284 Ry
     estimated scf accuracy    <      17.67868430 Ry

     iteration #  4     ecut=   124.00 Ry     beta= 0.70
     Davidson diagonalization with overlap
     ethr =  1.00E-02,  avg # of iterations =  2.2

     negative rho (up, down):  2.547E-04 0.000E+00

     total cpu time spent up to now is        8.2 secs

     total energy              =    -449.15141516 Ry
     estimated scf accuracy    <       5.57456602 Ry

     iteration #  5     ecut=   124.00 Ry     beta= 0.70
     Davidson diagonalization with overlap
     ethr =  1.00E-02,  avg # of iterations =  1.1

     negative rho (up, down):  5.517E-04 0.000E+00

     total cpu time spent up to now is        9.4 secs

     total energy              =    -448.83874988 Ry
     estimated scf accuracy    <       4.71037350 Ry

     iteration #  6     ecut=   124.00 Ry     beta= 0.70
     Davidson diagonalization with overlap
     ethr =  1.00E-02,  avg # of iterations =  1.2

     negative rho (up, down):  9.346E-04 0.000E+00

     total cpu time spent up to now is       10.6 secs

     total energy              =    -448.22160300 Ry
     estimated scf accuracy    <       3.70621968 Ry

     iteration #  7     ecut=   124.00 Ry     beta= 0.70
     Davidson diagonalization with overlap
     ethr =  1.00E-02,  avg # of iterations =  1.8

     negative rho (up, down):  1.086E-03 0.000E+00

     total cpu time spent up to now is       11.9 secs

     total energy              =    -448.61348736 Ry
     estimated scf accuracy    <       0.20078754 Ry

     iteration #  8     ecut=   124.00 Ry     beta= 0.70
     Davidson diagonalization with overlap
     ethr =  7.17E-04,  avg # of iterations =  5.6

     negative rho (up, down):  5.712E-04 0.000E+00

     total cpu time spent up to now is       13.7 secs

     total energy              =    -447.93480025 Ry
     estimated scf accuracy    <       5.31705221 Ry

     iteration #  9     ecut=   124.00 Ry     beta= 0.70
     Davidson diagonalization with overlap
     ethr =  7.17E-04,  avg # of iterations =  4.8

     negative rho (up, down):  5.611E-04 0.000E+00

     total cpu time spent up to now is       15.3 secs

     total energy              =    -448.64144189 Ry
     estimated scf accuracy    <       1.97363080 Ry

     iteration # 10     ecut=   124.00 Ry     beta= 0.70
     Davidson diagonalization with overlap
     ethr =  7.17E-04,  avg # of iterations =  1.1

     negative rho (up, down):  4.023E-04 0.000E+00

     total cpu time spent up to now is       16.6 secs

     total energy              =    -448.70607771 Ry
     estimated scf accuracy    <       0.92624661 Ry

     iteration # 11     ecut=   124.00 Ry     beta= 0.70
     Davidson diagonalization with overlap
     ethr =  7.17E-04,  avg # of iterations =  1.1

     negative rho (up, down):  1.106E-04 0.000E+00

     total cpu time spent up to now is       17.8 secs

     total energy              =    -449.02727145 Ry
     estimated scf accuracy    <       1.03391596 Ry

     iteration # 12     ecut=   124.00 Ry     beta= 0.70
     Davidson diagonalization with overlap
     ethr =  7.17E-04,  avg # of iterations =  2.8

     negative rho (up, down):  7.449E-05 0.000E+00

     total cpu time spent up to now is       19.3 secs

     total energy              =    -449.19851383 Ry
     estimated scf accuracy    <       3.41812921 Ry

     iteration # 13     ecut=   124.00 Ry     beta= 0.70
     Davidson diagonalization with overlap
     ethr =  7.17E-04,  avg # of iterations =  1.0

     negative rho (up, down):  9.420E-05 0.000E+00

     total cpu time spent up to now is       20.5 secs

     total energy              =    -449.14470016 Ry
     estimated scf accuracy    <       3.76271941 Ry

     iteration # 14     ecut=   124.00 Ry     beta= 0.70
     Davidson diagonalization with overlap
     ethr =  7.17E-04,  avg # of iterations =  1.0

     negative rho (up, down):  4.644E-04 0.000E+00

     total cpu time spent up to now is       21.7 secs

     total energy              =    -448.59513017 Ry
     estimated scf accuracy    <       3.55539799 Ry

     iteration # 15     ecut=   124.00 Ry     beta= 0.70
     Davidson diagonalization with overlap
     ethr =  7.17E-04,  avg # of iterations =  3.0

     negative rho (up, down):  8.906E-04 0.000E+00

     total cpu time spent up to now is       23.3 secs

     total energy              =    -448.51069941 Ry
     estimated scf accuracy    <       0.88412911 Ry

     iteration # 16     ecut=   124.00 Ry     beta= 0.70
     Davidson diagonalization with overlap
     ethr =  7.17E-04,  avg # of iterations =  4.2

     negative rho (up, down):  1.668E-03 0.000E+00

     total cpu time spent up to now is       24.8 secs

     total energy              =    -448.62842962 Ry
     estimated scf accuracy    <       0.01953840 Ry

     iteration # 17     ecut=   124.00 Ry     beta= 0.70
     Davidson diagonalization with overlap
     ethr =  6.98E-05,  avg # of iterations =  6.8

     negative rho (up, down):  1.595E-03 0.000E+00

     total cpu time spent up to now is       27.1 secs

     total energy              =    -448.86400784 Ry
     estimated scf accuracy    <      10.01767407 Ry

     iteration # 18     ecut=   124.00 Ry     beta= 0.70
     Davidson diagonalization with overlap
     ethr =  6.98E-05,  avg # of iterations =  3.1

     negative rho (up, down):  1.443E-03 0.000E+00

     total cpu time spent up to now is       28.4 secs

     total energy              =    -448.79045534 Ry
     estimated scf accuracy    <       7.72255837 Ry

     iteration # 19     ecut=   124.00 Ry     beta= 0.70
     Davidson diagonalization with overlap
     ethr =  6.98E-05,  avg # of iterations =  3.6

     negative rho (up, down):  1.206E-03 0.000E+00

     total cpu time spent up to now is       29.8 secs

     total energy              =    -448.66501348 Ry
     estimated scf accuracy    <       5.46082946 Ry

     iteration # 20     ecut=   124.00 Ry     beta= 0.70
     Davidson diagonalization with overlap
     ethr =  6.98E-05,  avg # of iterations =  4.6

     negative rho (up, down):  1.161E-03 0.000E+00

     total cpu time spent up to now is       31.5 secs

     total energy              =    -448.68103591 Ry
     estimated scf accuracy    <       2.34363221 Ry

     iteration # 21     ecut=   124.00 Ry     beta= 0.70
     Davidson diagonalization with overlap
     ethr =  6.98E-05,  avg # of iterations =  1.0

     negative rho (up, down):  1.067E-03 0.000E+00

     total cpu time spent up to now is       32.7 secs

     total energy              =    -448.64430416 Ry
     estimated scf accuracy    <       2.16466430 Ry

     iteration # 22     ecut=   124.00 Ry     beta= 0.70
     Davidson diagonalization with overlap
     ethr =  6.98E-05,  avg # of iterations =  3.2

     negative rho (up, down):  3.958E-04 0.000E+00

     total cpu time spent up to now is       34.1 secs

     total energy              =    -448.46509029 Ry
     estimated scf accuracy    <       1.37435708 Ry

     iteration # 23     ecut=   124.00 Ry     beta= 0.70
     Davidson diagonalization with overlap
     ethr =  6.98E-05,  avg # of iterations =  6.1

     negative rho (up, down):  1.579E-04 0.000E+00

     total cpu time spent up to now is       36.1 secs

     total energy              =    -448.70290238 Ry
     estimated scf accuracy    <       0.14986474 Ry

     iteration # 24     ecut=   124.00 Ry     beta= 0.70
     Davidson diagonalization with overlap
     ethr =  6.98E-05,  avg # of iterations =  5.2

     negative rho (up, down):  9.424E-05 0.000E+00

     total cpu time spent up to now is       38.0 secs

     total energy              =    -448.85527744 Ry
     estimated scf accuracy    <       0.93181161 Ry

     iteration # 25     ecut=   124.00 Ry     beta= 0.70
     Davidson diagonalization with overlap
     ethr =  6.98E-05,  avg # of iterations =  4.0

     negative rho (up, down):  1.590E-04 0.000E+00

     total cpu time spent up to now is       39.6 secs

     total energy              =    -448.80471236 Ry
     estimated scf accuracy    <       1.82379548 Ry

     iteration # 26     ecut=   124.00 Ry     beta= 0.70
     Davidson diagonalization with overlap
     ethr =  6.98E-05,  avg # of iterations =  2.1

     negative rho (up, down):  3.039E-04 0.000E+00

     total cpu time spent up to now is       41.0 secs

     total energy              =    -448.71085776 Ry
     estimated scf accuracy    <       1.65922862 Ry

     iteration # 27     ecut=   124.00 Ry     beta= 0.70
     Davidson diagonalization with overlap
     ethr =  6.98E-05,  avg # of iterations =  3.4

     negative rho (up, down):  8.397E-04 0.000E+00

     total cpu time spent up to now is       42.6 secs

     total energy              =    -448.52225947 Ry
     estimated scf accuracy    <       1.10582290 Ry

     iteration # 28     ecut=   124.00 Ry     beta= 0.70
     Davidson diagonalization with overlap
     ethr =  6.98E-05,  avg # of iterations =  5.4

     negative rho (up, down):  9.273E-04 0.000E+00

     total cpu time spent up to now is       44.6 secs

     total energy              =    -448.58404392 Ry
     estimated scf accuracy    <       0.01146623 Ry

     iteration # 29     ecut=   124.00 Ry     beta= 0.70
     Davidson diagonalization with overlap
     ethr =  4.10E-05,  avg # of iterations =  2.5

     negative rho (up, down):  6.598E-04 0.000E+00

     total cpu time spent up to now is       45.9 secs

     total energy              =    -448.58822565 Ry
     estimated scf accuracy    <       0.00543589 Ry

     iteration # 30     ecut=   124.00 Ry     beta= 0.70
     Davidson diagonalization with overlap
     ethr =  1.94E-05,  avg # of iterations =  5.1

     negative rho (up, down):  5.394E-04 0.000E+00

     total cpu time spent up to now is       47.8 secs

     total energy              =    -448.63621243 Ry
     estimated scf accuracy    <       0.27903234 Ry

     iteration # 31     ecut=   124.00 Ry     beta= 0.70
     Davidson diagonalization with overlap
     ethr =  1.94E-05,  avg # of iterations =  4.1

     negative rho (up, down):  9.555E-04 0.000E+00

     total cpu time spent up to now is       49.5 secs

     total energy              =    -448.54921084 Ry
     estimated scf accuracy    <       0.53497623 Ry

     iteration # 32     ecut=   124.00 Ry     beta= 0.70
     Davidson diagonalization with overlap
     ethr =  1.94E-05,  avg # of iterations =  6.0

     negative rho (up, down):  1.065E-03 0.000E+00

     total cpu time spent up to now is       51.5 secs

     WARNING: integrated charge=    28.00151686, expected=    28.00000000

     total energy              =    -448.58385611 Ry
     estimated scf accuracy    <       0.00034573 Ry

     iteration # 33     ecut=   124.00 Ry     beta= 0.70
     Davidson diagonalization with overlap
     ethr =  1.23E-06,  avg # of iterations =  6.3

     negative rho (up, down):  9.567E-04 0.000E+00

     total cpu time spent up to now is       53.7 secs

     WARNING: integrated charge=    28.00035514, expected=    28.00000000

     total energy              =    -448.58140648 Ry
     estimated scf accuracy    <       0.06754593 Ry

     iteration # 34     ecut=   124.00 Ry     beta= 0.70
     Davidson diagonalization with overlap
     ethr =  1.23E-06,  avg # of iterations =  5.9

     negative rho (up, down):  9.921E-04 0.000E+00

     total cpu time spent up to now is       55.8 secs

     WARNING: integrated charge=    28.00099389, expected=    28.00000000

     total energy              =    -448.58430742 Ry
     estimated scf accuracy    <       0.00010541 Ry

     iteration # 35     ecut=   124.00 Ry     beta= 0.70
     Davidson diagonalization with overlap
     ethr =  3.76E-07,  avg # of iterations =  4.8

     negative rho (up, down):  9.944E-04 0.000E+00

     total cpu time spent up to now is       57.5 secs

     WARNING: integrated charge=    28.00043537, expected=    28.00000000

     total energy              =    -448.58571096 Ry
     estimated scf accuracy    <       0.00317887 Ry

     iteration # 36     ecut=   124.00 Ry     beta= 0.70
     Davidson diagonalization with overlap
     ethr =  3.76E-07,  avg # of iterations =  1.0

     negative rho (up, down):  9.679E-04 0.000E+00

     total cpu time spent up to now is       58.7 secs

     WARNING: integrated charge=    28.00319077, expected=    28.00000000

     total energy              =    -448.57947766 Ry
     estimated scf accuracy    <       0.00213006 Ry

     iteration # 37     ecut=   124.00 Ry     beta= 0.70
     Davidson diagonalization with overlap
     ethr =  3.76E-07,  avg # of iterations =  4.7

     negative rho (up, down):  9.699E-04 0.000E+00

     total cpu time spent up to now is       60.4 secs

     WARNING: integrated charge=    28.00231141, expected=    28.00000000

     total energy              =    -448.58382788 Ry
     estimated scf accuracy    <       0.00002774 Ry

     iteration # 38     ecut=   124.00 Ry     beta= 0.70
     Davidson diagonalization with overlap
     ethr =  9.91E-08,  avg # of iterations =  1.1

     negative rho (up, down):  9.718E-04 0.000E+00

     total cpu time spent up to now is       61.6 secs

     WARNING: integrated charge=    28.00165027, expected=    28.00000000

     total energy              =    -448.58361657 Ry
     estimated scf accuracy    <       0.00001118 Ry

     iteration # 39     ecut=   124.00 Ry     beta= 0.70
     Davidson diagonalization with overlap
     ethr =  3.99E-08,  avg # of iterations =  2.0

     negative rho (up, down):  9.714E-04 0.000E+00

     total cpu time spent up to now is       62.9 secs

     WARNING: integrated charge=    28.00163922, expected=    28.00000000

     total energy              =    -448.58333957 Ry
     estimated scf accuracy    <       0.00000006 Ry

     iteration # 40     ecut=   124.00 Ry     beta= 0.70
     Davidson diagonalization with overlap
     ethr =  2.07E-10,  avg # of iterations =  5.2

     negative rho (up, down):  9.717E-04 0.000E+00

     total cpu time spent up to now is       64.7 secs

     WARNING: integrated charge=    28.00169194, expected=    28.00000000

     total energy              =    -448.58339841 Ry
     estimated scf accuracy    <       0.00000017 Ry

     iteration # 41     ecut=   124.00 Ry     beta= 0.70
     Davidson diagonalization with overlap
     ethr =  2.07E-10,  avg # of iterations =  3.2

     negative rho (up, down):  9.717E-04 0.000E+00

     total cpu time spent up to now is       66.1 secs

     End of self-consistent calculation

          k = 0.0000 0.0000 0.0000 (  4169 PWs)   bands (ev):

   -70.1883 -40.2636 -36.2476 -36.2476 -36.2476 -16.3710 -16.3710 -16.3710
     9.3042  13.1132  13.1132  15.7070  15.7070  15.7070  17.9092  17.9092
    19.7170  19.7170

          k = 0.0000 0.0000 0.0909 (  4188 PWs)   bands (ev):

   -70.1880 -40.2618 -36.2498 -36.2473 -36.2473 -16.3954 -16.3695 -16.3695
     9.4693  13.1918  13.1934  15.6949  15.6949  15.7424  17.8125  17.9451
    19.4849  19.4849

          k = 0.0000 0.0000 0.1818 (  4184 PWs)   bands (ev):

   -70.1875 -40.2568 -36.2557 -36.2465 -36.2465 -16.4604 -16.3654 -16.3654
     9.9494  13.3994  13.4216  15.6667  15.6667  15.8416  17.5327  18.0241
    18.9432  18.9432

          k = 0.0000 0.0000 0.2727 (  4176 PWs)   bands (ev):

   -70.1867 -40.2504 -36.2634 -36.2455 -36.2455 -16.5447 -16.3601 -16.3601
    10.6985  13.6250  13.7826  15.6416  15.6416  15.9823  17.1031  18.0433
    18.3423  18.3423

          k = 0.0000 0.0000 0.3636 (  4184 PWs)   bands (ev):

   -70.1860 -40.2445 -36.2704 -36.2445 -36.2445 -16.6212 -16.3551 -16.3551
    11.6313  13.6896  14.2282  15.6344  15.6344  16.1253  16.5916  17.8439
    17.8506  17.8506

          k = 0.0000 0.0000 0.4545 (  4168 PWs)   bands (ev):

   -70.1856 -40.2410 -36.2745 -36.2439 -36.2439 -16.6664 -16.3522 -16.3522
    12.5890  13.3825  14.6254  15.6404  15.6404  16.1539  16.2183  17.5374
    17.5730  17.5730

          k = 0.0000 0.0909 0.0909 (  4196 PWs)   bands (ev):

   -70.1878 -40.2599 -36.2504 -36.2488 -36.2470 -16.3961 -16.3913 -16.3679
     9.6313  13.2645  13.2764  15.6191  15.6754  15.8307  17.7983  17.9181
    19.2304  19.2522

          k = 0.0000 0.0909 0.1818 (  4184 PWs)   bands (ev):

   -70.1873 -40.2547 -36.2559 -36.2487 -36.2462 -16.4584 -16.3888 -16.3637
    10.1017  13.4631  13.5027  15.5445  15.6274  15.9392  17.5829  17.9871
    18.7228  18.7569

          k = 0.0000 0.0909 0.2727 (  4188 PWs)   bands (ev):

   -70.1865 -40.2480 -36.2637 -36.2480 -36.2452 -16.5418 -16.3828 -16.3581
    10.8328  13.6883  13.8399  15.5029  15.5728  16.0180  17.2173  17.9498
    18.2536  18.2919

          k = 0.0000 0.0909 0.3636 (  4187 PWs)   bands (ev):

   -70.1858 -40.2418 -36.2709 -36.2474 -36.2442 -16.6176 -16.3773 -16.3530
    11.7364  13.7428  14.2530  15.5057  15.5238  16.0253  16.7972  17.5649
    17.9801  18.0926

          k = 0.0000 0.0909 0.4545 (  4189 PWs)   bands (ev):

   -70.1854 -40.2381 -36.2751 -36.2470 -36.2436 -16.6623 -16.3740 -16.3499
    12.6531  13.4336  14.6173  15.4610  15.5368  15.9779  16.4924  17.2844
    17.8536  17.9036

          k = 0.0000 0.1818 0.1818 (  4168 PWs)   bands (ev):

   -70.1867 -40.2489 -36.2579 -36.2532 -36.2454 -16.4587 -16.4452 -16.3590
    10.5406  13.5991  13.7549  15.3834  15.5363  16.0089  17.6295  17.9499
    18.2383  18.4570

          k = 0.0000 0.1818 0.2727 (  4192 PWs)   bands (ev):

   -70.1860 -40.2414 -36.2648 -36.2547 -36.2444 -16.5342 -16.4433 -16.3529
    11.2101  13.7424  14.1018  15.2706  15.4471  15.9387  17.4718  17.7161
    18.0971  18.2899

          k = 0.0000 0.1818 0.3636 (  4185 PWs)   bands (ev):

   -70.1853 -40.2344 -36.2722 -36.2551 -36.2435 -16.6080 -16.4363 -16.3473
    12.0092  13.7436  14.4632  15.2360  15.4136  15.7459  17.1919  17.3934
    18.2025  18.3057

          k = 0.0000 0.1818 0.4545 (  4201 PWs)   bands (ev):

   -70.1849 -40.2303 -36.2767 -36.2552 -36.2429 -16.6515 -16.4321 -16.3439
    12.7696  13.4716  14.7317  15.2804  15.4356  15.5468  17.0306  17.1611
    18.2103  18.3932

          k = 0.0000 0.2727 0.2727 (  4200 PWs)   bands (ev):

   -70.1852 -40.2328 -36.2677 -36.2621 -36.2435 -16.5309 -16.5151 -16.3460
    11.7523  13.7154  14.5141  15.0774  15.3927  15.6910  17.5056  17.6868
    17.9985  18.4492

          k = 0.0000 0.2727 0.3636 (  4191 PWs)   bands (ev):

   -70.1845 -40.2249 -36.2741 -36.2651 -36.2426 -16.5954 -16.5128 -16.3397
    12.3304  13.5839  14.9246  14.9750  15.3910  15.5209  17.3297  17.6642
    18.1503  18.7036

          k = 0.0000 0.2727 0.4545 (  4194 PWs)   bands (ev):

   -70.1841 -40.2201 -36.2788 -36.2660 -36.2420 -16.6374 -16.5074 -16.3360
    12.7869  13.3722  14.9855  15.1486  15.1495  15.8355  17.0932  17.6262
    18.3337  18.9320

          k = 0.0000 0.3636 0.3636 (  4216 PWs)   bands (ev):

   -70.1839 -40.2160 -36.2767 -36.2735 -36.2417 -16.5877 -16.5785 -16.3328
    12.5718  13.3796  14.8014  15.0690  15.4857  15.8740  17.4390  17.9893
    17.9998  19.0785

          k = 0.0000 0.3636 0.4545 (  4194 PWs)   bands (ev):

   -70.1835 -40.2107 -36.2808 -36.2759 -36.2412 -16.6244 -16.5760 -16.3287
    12.6946  13.2345  14.7526  14.8468  15.8249  16.4786  17.2075  18.0463
    18.1842  19.3591

          k = 0.0000 0.4545 0.4545 (  4198 PWs)   bands (ev):

   -70.1831 -40.2051 -36.2821 -36.2816 -36.2407 -16.6172 -16.6159 -16.3244
    12.6103  13.1496  14.6402  14.6716  16.4882  16.9185  17.5480  17.7198
    18.2970  19.6108

          k = 0.0909 0.0909 0.0909 (  4178 PWs)   bands (ev):

   -70.1876 -40.2579 -36.2501 -36.2501 -36.2479 -16.3963 -16.3897 -16.3897
     9.7907  13.3471  13.3471  15.5979  15.5979  15.9010  17.8456  17.8456
    18.8422  19.4655

          k = 0.0909 0.0909 0.1818 (  4181 PWs)   bands (ev):

   -70.1871 -40.2525 -36.2560 -36.2493 -36.2478 -16.4562 -16.3883 -16.3855
    10.2527  13.5525  13.5578  15.4953  15.5418  15.9757  17.6364  17.9525
    18.4010  18.9207

          k = 0.0909 0.0909 0.2727 (  4194 PWs)   bands (ev):

   -70.1863 -40.2455 -36.2640 -36.2482 -36.2474 -16.5389 -16.3815 -16.3801
    10.9679  13.7806  13.8705  15.4391  15.4653  15.9712  17.3200  17.8993
    18.2146  18.3281

          k = 0.0909 0.0909 0.3636 (  4192 PWs)   bands (ev):

   -70.1856 -40.2391 -36.2713 -36.2472 -36.2470 -16.6141 -16.3752 -16.3751
    11.8458  13.8205  14.2536  15.3713  15.4643  15.8941  16.9649  17.6218
    17.8566  18.2955

          k = 0.0909 0.0909 0.4545 (  4201 PWs)   bands (ev):

   -70.1852 -40.2352 -36.2756 -36.2468 -36.2466 -16.6585 -16.3721 -16.3715
    12.7267  13.5011  14.5885  15.2551  15.5667  15.8133  16.7083  17.3436
    17.5989  18.3862

          k = 0.0909 0.1818 0.1818 (  4186 PWs)   bands (ev):

   -70.1865 -40.2466 -36.2576 -36.2536 -36.2478 -16.4561 -16.4436 -16.3819
    10.6872  13.6940  13.8023  15.3486  15.4385  15.9392  17.6931  17.9236
    18.1348  18.6568

          k = 0.0909 0.1818 0.2727 (  4187 PWs)   bands (ev):

   -70.1857 -40.2389 -36.2648 -36.2547 -36.2471 -16.5314 -16.4412 -16.3754
    11.3477  13.8534  14.1188  15.2292  15.3426  15.7717  17.5534  17.8276
    18.1336  18.3413

          k = 0.0909 0.1818 0.3636 (  4204 PWs)   bands (ev):

   -70.1851 -40.2318 -36.2724 -36.2549 -36.2464 -16.6048 -16.4342 -16.3694
    12.1311  13.8610  14.4220  15.1580  15.3303  15.6033  17.3365  17.4974
    17.9975  18.5788

          k = 0.0909 0.1818 0.4545 (  4201 PWs)   bands (ev):

   -70.1847 -40.2276 -36.2770 -36.2549 -36.2460 -16.6482 -16.4300 -16.3658
    12.8695  13.5758  14.6488  15.0888  15.4280  15.5402  17.1668  17.2287
    17.8061  18.9343

          k = 0.0909 0.2727 0.2727 (  4189 PWs)   bands (ev):

   -70.1850 -40.2303 -36.2673 -36.2623 -36.2463 -16.5278 -16.5134 -16.3684
    11.8923  13.8308  14.5233  15.0406  15.2758  15.4928  17.6148  17.8339
    17.9809  18.5697

          k = 0.0909 0.2727 0.3636 (  4195 PWs)   bands (ev):

   -70.1843 -40.2223 -36.2740 -36.2649 -36.2455 -16.5927 -16.5108 -16.3619
    12.4669  13.7011  14.8687  14.9348  15.2793  15.4004  17.4060  17.7477
    18.0458  18.9500

          k = 0.0909 0.2727 0.4545 (  4211 PWs)   bands (ev):

   -70.1839 -40.2176 -36.2788 -36.2657 -36.2450 -16.6347 -16.5055 -16.3581
    12.9104  13.4912  14.9075  14.9457  15.2187  15.7547  17.1267  17.7234
    17.9733  19.4000

          k = 0.0909 0.3636 0.3636 (  4219 PWs)   bands (ev):

   -70.1837 -40.2135 -36.2763 -36.2734 -36.2447 -16.5851 -16.5768 -16.3550
    12.7107  13.4961  14.7720  14.9848  15.4451  15.7145  17.4104  17.8730
    18.0946  19.3650

          k = 0.0909 0.3636 0.4545 (  4207 PWs)   bands (ev):

   -70.1833 -40.2083 -36.2805 -36.2755 -36.2442 -16.6222 -16.5742 -16.3509
    12.8246  13.3549  14.7211  14.7977  15.7517  16.3129  17.1719  17.8345
    18.1798  19.5872

          k = 0.0909 0.4545 0.4545 (  4204 PWs)   bands (ev):

   -70.1829 -40.2028 -36.2817 -36.2813 -36.2437 -16.6153 -16.6142 -16.3466
    12.7405  13.2699  14.6180  14.6452  16.4296  16.7732  17.3303  17.4103
    18.3711  19.7977

          k = 0.1818 0.1818 0.1818 (  4193 PWs)   bands (ev):

   -70.1859 -40.2404 -36.2567 -36.2567 -36.2520 -16.4527 -16.4392 -16.4392
    11.1065  13.9366  13.9366  15.2554  15.2554  15.6930  17.8463  17.8463
    18.1840  18.8819

          k = 0.1818 0.1818 0.2727 (  4200 PWs)   bands (ev):

   -70.1852 -40.2322 -36.2649 -36.2555 -36.2534 -16.5242 -16.4376 -16.4335
    11.7345  14.1344  14.1739  15.1261  15.1296  15.4026  17.7294  17.9047
    18.3139  18.4661

          k = 0.1818 0.1818 0.3636 (  4206 PWs)   bands (ev):

   -70.1845 -40.2247 -36.2730 -36.2545 -36.2541 -16.5965 -16.4288 -16.4283
    12.4561  14.1193  14.3558  14.9955  15.1518  15.3373  17.6072  17.6438
    17.8711  18.9864

          k = 0.1818 0.1818 0.4545 (  4219 PWs)   bands (ev):

   -70.1841 -40.2203 -36.2778 -36.2545 -36.2538 -16.6392 -16.4252 -16.4235
    13.0999  13.7784  14.5379  14.8764  15.2543  15.4935  17.2515  17.5418
    17.6154  19.3400

          k = 0.1818 0.2727 0.2727 (  4211 PWs)   bands (ev):

   -70.1845 -40.2235 -36.2664 -36.2629 -36.2539 -16.5195 -16.5089 -16.4281
    12.2857  14.1457  14.5447  14.9451  15.0139  15.0847  17.7370  17.9062
    18.2273  18.9084

          k = 0.1818 0.2727 0.3636 (  4205 PWs)   bands (ev):

   -70.1838 -40.2154 -36.2738 -36.2645 -36.2535 -16.5856 -16.5052 -16.4211
    12.8474  14.0092  14.6898  14.8332  15.0498  15.1617  17.5108  17.7432
    18.1276  19.2044

          k = 0.1818 0.2727 0.4545 (  4221 PWs)   bands (ev):

   -70.1834 -40.2106 -36.2789 -36.2648 -36.2531 -16.6274 -16.5002 -16.4169
    13.2449  13.7873  14.6771  14.7742  15.1212  15.5625  17.1636  17.5955
    18.0442  19.4076

          k = 0.1818 0.3636 0.3636 (  4215 PWs)   bands (ev):

   -70.1831 -40.2069 -36.2753 -36.2732 -36.2527 -16.5783 -16.5723 -16.4142
    13.1076  13.8009  14.6983  14.8013  15.3206  15.3251  17.3919  17.6031
    18.3724  19.3575

          k = 0.1818 0.3636 0.4545 (  4205 PWs)   bands (ev):

   -70.1827 -40.2017 -36.2799 -36.2746 -36.2522 -16.6165 -16.5693 -16.4101
    13.1944  13.6711  14.6459  14.6879  15.5129  15.9134  17.1162  17.4610
    18.4429  19.5811

          k = 0.1818 0.4545 0.4545 (  4213 PWs)   bands (ev):

   -70.1823 -40.1965 -36.2806 -36.2803 -36.2516 -16.6105 -16.6096 -16.4060
    13.1136  13.5909  14.5646  14.5838  16.1581  16.2427  17.0107  17.1867
    18.6160  19.8536

          k = 0.2727 0.2727 0.2727 (  4212 PWs)   bands (ev):

   -70.1837 -40.2146 -36.2651 -36.2651 -36.2623 -16.5111 -16.5030 -16.5030
    12.8404  14.5642  14.5642  14.6350  14.8267  14.8267  17.7408  17.7408
    18.6659  18.6659

          k = 0.2727 0.2727 0.3636 (  4210 PWs)   bands (ev):

   -70.1831 -40.2064 -36.2736 -36.2640 -36.2637 -16.5763 -16.4982 -16.4975
    13.3569  14.2624  14.5706  14.7247  14.8167  15.0177  17.4947  17.5463
    18.5246  19.1265

          k = 0.2727 0.2727 0.4545 (  4218 PWs)   bands (ev):

   -70.1827 -40.2015 -36.2790 -36.2641 -36.2633 -16.6178 -16.4943 -16.4923
    13.6250  14.0302  14.5674  14.6678  14.9632  15.4138  17.1109  17.4291
    18.4746  19.4405

          k = 0.2727 0.3636 0.3636 (  4209 PWs)   bands (ev):

   -70.1824 -40.1981 -36.2739 -36.2729 -36.2631 -16.5694 -16.5662 -16.4910
    13.6954  14.1286  14.6159  14.6910  14.8918  15.1220  17.3449  17.3468
    18.8064  19.3135

          k = 0.2727 0.3636 0.4545 (  4207 PWs)   bands (ev):

   -70.1820 -40.1931 -36.2791 -36.2734 -36.2626 -16.6090 -16.5628 -16.4869
    13.7258  14.0388  14.5779  14.6180  15.1453  15.4949  17.0229  17.2692
    18.8641  19.6150

          k = 0.2727 0.4545 0.4545 (  4187 PWs)   bands (ev):

   -70.1816 -40.1882 -36.2792 -36.2790 -36.2620 -16.6040 -16.6036 -16.4831
    13.6698  13.9992  14.5138  14.5370  15.6362  15.6681  16.8658  17.1140
    19.0274  19.8883

          k = 0.3636 0.3636 0.3636 (  4188 PWs)   bands (ev):

   -70.1817 -40.1900 -36.2727 -36.2727 -36.2725 -16.5613 -16.5607 -16.5607
    14.1383  14.3704  14.5670  14.5670  14.8969  14.8969  17.1826  17.1826
    19.3190  19.3190

          k = 0.3636 0.3636 0.4545 (  4206 PWs)   bands (ev):

   -70.1813 -40.1852 -36.2783 -36.2724 -36.2720 -16.6022 -16.5574 -16.5562
    14.1376  14.2809  14.5828  14.7138  14.8488  15.2170  16.9372  17.1113
    19.3308  19.7011

          k = 0.3636 0.4545 0.4545 (  4210 PWs)   bands (ev):

   -70.1809 -40.1805 -36.2779 -36.2779 -36.2715 -16.5981 -16.5981 -16.5533
    14.2388  14.3571  14.5073  14.5973  15.1463  15.1998  16.8288  16.9837
    19.5365  19.9153

          k = 0.4545 0.4545 0.4545 (  4230 PWs)   bands (ev):

   -70.1806 -40.1760 -36.2773 -36.2772 -36.2772 -16.5948 -16.5948 -16.5945
    14.4466  14.5719  14.5719  14.8730  14.8730  14.8763  16.8198  16.8198
    19.9306  19.9306

     the Fermi energy is    16.6231 ev

     WARNING: integrated charge=    28.00181578, expected=    28.00000000

!    total energy              =    -448.58336213 Ry
     estimated scf accuracy    <          4.0E-09 Ry
     smearing contrib. (-TS)   =       0.00003710 Ry
     internal energy E=F+TS    =    -448.58339922 Ry

     The total energy is F=E-TS. E is the sum of the following terms:
     one-electron contribution =    -158.06362780 Ry
     hartree contribution      =      93.91050110 Ry
     xc contribution           =     -52.80362422 Ry
     ewald contribution        =    -255.47395600 Ry
     one-center paw contrib.   =     -76.15269231 Ry

     convergence has been achieved in  41 iterations

     negative rho (up, down):  9.717E-04 0.000E+00

     Forces acting on atoms (cartesian axes, Ry/au):

     atom    1 type  1   force =     0.00000000    0.00000000    0.00000000
     atom    2 type  2   force =     0.00000000    0.00000000    0.00000000

     Total force =     0.000000     Total SCF correction =     0.000000


     Computing stress (Cartesian axis) and pressure


     negative rho (up, down):  9.717E-04 0.000E+00
          total   stress  (Ry/bohr**3)                   (kbar)     P=      -61.05
  -0.00041498   0.00000000   0.00000000          -61.05        0.00        0.00
   0.00000000  -0.00041498   0.00000000            0.00      -61.05        0.00
   0.00000000   0.00000000  -0.00041498            0.00        0.00      -61.05


     Writing all to output data dir ./TiFe.save/ :
     XML data file, charge density, pseudopotentials, collected wavefunctions

     init_run     :      1.10s CPU      1.14s WALL (       1 calls)
     electrons    :     61.98s CPU     64.76s WALL (       1 calls)
     forces       :      0.25s CPU      0.28s WALL (       1 calls)
     stress       :      1.50s CPU      1.56s WALL (       1 calls)

     Called by init_run:
     wfcinit      :      0.45s CPU      0.46s WALL (       1 calls)
     potinit      :      0.21s CPU      0.21s WALL (       1 calls)
     hinit0       :      0.25s CPU      0.26s WALL (       1 calls)

     Called by electrons:
     c_bands      :     42.73s CPU     43.53s WALL (      41 calls)
     sum_band     :     11.02s CPU     12.01s WALL (      41 calls)
     v_of_rho     :      0.92s CPU      1.02s WALL (      42 calls)
     newd         :      5.05s CPU      5.87s WALL (      42 calls)
     PAW_pot      :      2.25s CPU      2.31s WALL (      42 calls)
     mix_rho      :      0.12s CPU      0.13s WALL (      41 calls)

     Called by c_bands:
     init_us_2    :      0.78s CPU      0.81s WALL (    4760 calls)
     cegterg      :     41.32s CPU     42.05s WALL (    2296 calls)

     Called by *egterg:
     cdiaghg      :      3.78s CPU      3.84s WALL (   10279 calls)
     h_psi        :     33.33s CPU     33.93s WALL (   10335 calls)
     s_psi        :      0.63s CPU      0.64s WALL (   10335 calls)
     g_psi        :      0.14s CPU      0.15s WALL (    7983 calls)

     Called by h_psi:
     h_psi:calbec :      1.30s CPU      1.32s WALL (   10335 calls)
     vloc_psi     :     31.23s CPU     31.80s WALL (   10335 calls)
     add_vuspsi   :      0.66s CPU      0.67s WALL (   10335 calls)

     General routines
     calbec       :      1.74s CPU      1.77s WALL (   13583 calls)
     fft          :      0.64s CPU      0.77s WALL (     569 calls)
     ffts         :      0.12s CPU      0.13s WALL (      83 calls)
     fftw         :     30.91s CPU     31.43s WALL (  277586 calls)
     interpolate  :      0.15s CPU      0.17s WALL (      42 calls)

     Parallel routines

     PWSCF        :     65.13s CPU     68.20s WALL


   This run was terminated on:   0:45: 8  25Oct2025            

=------------------------------------------------------------------------------=
   JOB DONE.
=------------------------------------------------------------------------------=
