
     Program PWSCF v.7.4 starts on 25Oct2025 at  0:35: 4 

     This program is part of the open-source Quantum ESPRESSO suite
     for quantum simulation of materials; please cite
         "P. Giannozzi et al., J. Phys.:Condens. Matter 21 395502 (2009);
         "P. Giannozzi et al., J. Phys.:Condens. Matter 29 465901 (2017);
         "P. Giannozzi et al., J. Chem. Phys. 152 154105 (2020);
          URL http://www.quantum-espresso.org", 
     in publications or presentations arising from this work. More details at
     http://www.quantum-espresso.org/quote

     Parallel version (MPI & OpenMP), running on       8 processor cores
     Number of MPI processes:                 8
     Threads/MPI process:                     1

     MPI processes distributed on     1 nodes
     210465 MiB available memory on the printing compute node when the environment starts

     Reading input from TiFe_0.in

     Current dimensions of program PWSCF are:
     Max number of different atomic species (ntypx) = 10
     Max number of k-points (npk) =  40000
     Max angular momentum in pseudopotentials (lmaxx) =  4
     file Fe.pbe-spn-kjpaw_psl.0.2.1.UPF: wavefunction(s)  3D renormalized

     IMPORTANT: XC functional enforced from input :
     Exchange-correlation= PBE
                           (   1   4   3   4   0   0   0)
     Any further DFT definition will be discarded
     Please, verify this is what you really want

     Message from routine setup:
     using ibrav=0 with symmetry is DISCOURAGED, use correct ibrav instead

     R & G space division:  proc/nbgrp/npool/nimage =       8
     Subspace diagonalization in iterative solution of the eigenvalue problem:
     a serial algorithm will be used


     Parallelization info
     --------------------
     sticks:   dense  smooth     PW     G-vecs:    dense   smooth      PW
     Min         488     139     41                23036     3531     557
     Max         489     140     43                23041     3533     558
     Sum        3909    1117    333               184307    28257    4457

     Using Slab Decomposition



     bravais-lattice index     =            0
     lattice parameter (alat)  =       5.3265  a.u.
     unit-cell volume          =     151.1242 (a.u.)^3
     number of atoms/cell      =            2
     number of atomic types    =            2
     number of electrons       =        28.00
     number of Kohn-Sham states=           18
     kinetic-energy cutoff     =     124.0000  Ry
     charge density cutoff     =    1736.0000  Ry
     scf convergence threshold =      1.0E-08
     mixing beta               =       0.7000
     number of iterations used =            8  plain     mixing
     Exchange-correlation= PBE
                           (   1   4   3   4   0   0   0)

     celldm(1)=   5.326533  celldm(2)=   0.000000  celldm(3)=   0.000000
     celldm(4)=   0.000000  celldm(5)=   0.000000  celldm(6)=   0.000000

     crystal axes: (cart. coord. in units of alat)
               a(1) = (   1.000000   0.000000   0.000000 )  
               a(2) = (   0.000000   1.000000   0.000000 )  
               a(3) = (   0.000000   0.000000   1.000000 )  

     reciprocal axes: (cart. coord. in units 2 pi/alat)
               b(1) = (  1.000000  0.000000  0.000000 )  
               b(2) = (  0.000000  1.000000  0.000000 )  
               b(3) = (  0.000000  0.000000  1.000000 )  


     PseudoPot. # 1 for Fe read from file:
     ../pseudos/Fe.pbe-spn-kjpaw_psl.0.2.1.UPF
     MD5 check sum: e86618425769142926afa95317d90200
     Pseudo is Projector augmented-wave + core cor, Zval = 16.0
     Generated using "atomic" code by A. Dal Corso  v.5.0.99 svn rev. 10869
     Shape of augmentation charge: PSQ
     Using radial grid of 1191 points,  6 beta functions with: 
                l(1) =   0
                l(2) =   0
                l(3) =   1
                l(4) =   1
                l(5) =   2
                l(6) =   2
     Q(r) pseudized with 0 coefficients 


     PseudoPot. # 2 for Ti read from file:
     ../pseudos/ti_pbe_v1.4.uspp.F.UPF
     MD5 check sum: 88a00a6731bd790ddea75d31a80cb452
     Pseudo is Ultrasoft + core correction, Zval = 12.0
     Generated by new atomic code, or converted to UPF format
     Using radial grid of  851 points,  6 beta functions with: 
                l(1) =   0
                l(2) =   0
                l(3) =   1
                l(4) =   1
                l(5) =   2
                l(6) =   2
     Q(r) pseudized with  6 coefficients,  rinner =    1.000   1.000   1.000
                                                       1.000   1.000

     atomic species   valence    mass     pseudopotential
     Fe               16.00    55.84500     Fe( 1.00)
     Ti               12.00    47.86700     Ti( 1.00)

     48 Sym. Ops., with inversion, found



   Cartesian axes

     site n.     atom                  positions (alat units)
         1        Fe     tau(   1) = (   0.5000000   0.5000000   0.5000000  )
         2        Ti     tau(   2) = (   0.0000000   0.0000000   0.0000000  )

     number of k points=    56  Marzari-Vanderbilt smearing, width (Ry)=  0.0050
                       cart. coord. in units 2pi/alat
        k(    1) = (   0.0000000   0.0000000   0.0000000), wk =   0.0015026
        k(    2) = (   0.0000000   0.0000000   0.0909091), wk =   0.0090158
        k(    3) = (   0.0000000   0.0000000   0.1818182), wk =   0.0090158
        k(    4) = (   0.0000000   0.0000000   0.2727273), wk =   0.0090158
        k(    5) = (   0.0000000   0.0000000   0.3636364), wk =   0.0090158
        k(    6) = (   0.0000000   0.0000000   0.4545455), wk =   0.0090158
        k(    7) = (   0.0000000   0.0909091   0.0909091), wk =   0.0180316
        k(    8) = (   0.0000000   0.0909091   0.1818182), wk =   0.0360631
        k(    9) = (   0.0000000   0.0909091   0.2727273), wk =   0.0360631
        k(   10) = (   0.0000000   0.0909091   0.3636364), wk =   0.0360631
        k(   11) = (   0.0000000   0.0909091   0.4545455), wk =   0.0360631
        k(   12) = (   0.0000000   0.1818182   0.1818182), wk =   0.0180316
        k(   13) = (   0.0000000   0.1818182   0.2727273), wk =   0.0360631
        k(   14) = (   0.0000000   0.1818182   0.3636364), wk =   0.0360631
        k(   15) = (   0.0000000   0.1818182   0.4545455), wk =   0.0360631
        k(   16) = (   0.0000000   0.2727273   0.2727273), wk =   0.0180316
        k(   17) = (   0.0000000   0.2727273   0.3636364), wk =   0.0360631
        k(   18) = (   0.0000000   0.2727273   0.4545455), wk =   0.0360631
        k(   19) = (   0.0000000   0.3636364   0.3636364), wk =   0.0180316
        k(   20) = (   0.0000000   0.3636364   0.4545455), wk =   0.0360631
        k(   21) = (   0.0000000   0.4545455   0.4545455), wk =   0.0180316
        k(   22) = (   0.0909091   0.0909091   0.0909091), wk =   0.0120210
        k(   23) = (   0.0909091   0.0909091   0.1818182), wk =   0.0360631
        k(   24) = (   0.0909091   0.0909091   0.2727273), wk =   0.0360631
        k(   25) = (   0.0909091   0.0909091   0.3636364), wk =   0.0360631
        k(   26) = (   0.0909091   0.0909091   0.4545455), wk =   0.0360631
        k(   27) = (   0.0909091   0.1818182   0.1818182), wk =   0.0360631
        k(   28) = (   0.0909091   0.1818182   0.2727273), wk =   0.0721262
        k(   29) = (   0.0909091   0.1818182   0.3636364), wk =   0.0721262
        k(   30) = (   0.0909091   0.1818182   0.4545455), wk =   0.0721262
        k(   31) = (   0.0909091   0.2727273   0.2727273), wk =   0.0360631
        k(   32) = (   0.0909091   0.2727273   0.3636364), wk =   0.0721262
        k(   33) = (   0.0909091   0.2727273   0.4545455), wk =   0.0721262
        k(   34) = (   0.0909091   0.3636364   0.3636364), wk =   0.0360631
        k(   35) = (   0.0909091   0.3636364   0.4545455), wk =   0.0721262
        k(   36) = (   0.0909091   0.4545455   0.4545455), wk =   0.0360631
        k(   37) = (   0.1818182   0.1818182   0.1818182), wk =   0.0120210
        k(   38) = (   0.1818182   0.1818182   0.2727273), wk =   0.0360631
        k(   39) = (   0.1818182   0.1818182   0.3636364), wk =   0.0360631
        k(   40) = (   0.1818182   0.1818182   0.4545455), wk =   0.0360631
        k(   41) = (   0.1818182   0.2727273   0.2727273), wk =   0.0360631
        k(   42) = (   0.1818182   0.2727273   0.3636364), wk =   0.0721262
        k(   43) = (   0.1818182   0.2727273   0.4545455), wk =   0.0721262
        k(   44) = (   0.1818182   0.3636364   0.3636364), wk =   0.0360631
        k(   45) = (   0.1818182   0.3636364   0.4545455), wk =   0.0721262
        k(   46) = (   0.1818182   0.4545455   0.4545455), wk =   0.0360631
        k(   47) = (   0.2727273   0.2727273   0.2727273), wk =   0.0120210
        k(   48) = (   0.2727273   0.2727273   0.3636364), wk =   0.0360631
        k(   49) = (   0.2727273   0.2727273   0.4545455), wk =   0.0360631
        k(   50) = (   0.2727273   0.3636364   0.3636364), wk =   0.0360631
        k(   51) = (   0.2727273   0.3636364   0.4545455), wk =   0.0721262
        k(   52) = (   0.2727273   0.4545455   0.4545455), wk =   0.0360631
        k(   53) = (   0.3636364   0.3636364   0.3636364), wk =   0.0120210
        k(   54) = (   0.3636364   0.3636364   0.4545455), wk =   0.0360631
        k(   55) = (   0.3636364   0.4545455   0.4545455), wk =   0.0360631
        k(   56) = (   0.4545455   0.4545455   0.4545455), wk =   0.0120210

     Dense  grid:   184307 G-vectors     FFT dimensions: (  72,  72,  72)

     Smooth grid:    28257 G-vectors     FFT dimensions: (  40,  40,  40)

     Estimated max dynamical RAM per process >      97.82 MB

     Estimated total dynamical RAM >     782.53 MB

     Check: negative core charge=   -0.000002

     Initial potential from superposition of free atoms

     starting charge      26.9995, renormalised to      28.0000

     negative rho (up, down):  1.320E-03 0.000E+00
     Starting wfcs are   23 randomized atomic wfcs
     Checking if some PAW data can be deallocated... 

     total cpu time spent up to now is        2.2 secs

     per-process dynamical memory:   132.5 Mb

     Self-consistent Calculation

     iteration #  1     ecut=   124.00 Ry     beta= 0.70
     Davidson diagonalization with overlap
     ethr =  1.00E-02,  avg # of iterations =  2.1

     negative rho (up, down):  5.419E-05 0.000E+00

     total cpu time spent up to now is        3.3 secs

     total energy              =    -437.10964469 Ry
     estimated scf accuracy    <      14.74008316 Ry

     iteration #  2     ecut=   124.00 Ry     beta= 0.70
     Davidson diagonalization with overlap
     ethr =  1.00E-02,  avg # of iterations =  6.0

     negative rho (up, down):  7.571E-05 0.000E+00

     total cpu time spent up to now is        4.9 secs

     total energy              =    -448.35490733 Ry
     estimated scf accuracy    <      57.40652766 Ry

     iteration #  3     ecut=   124.00 Ry     beta= 0.70
     Davidson diagonalization with overlap
     ethr =  1.00E-02,  avg # of iterations =  3.0

     negative rho (up, down):  3.205E-04 0.000E+00

     total cpu time spent up to now is        6.0 secs

     total energy              =    -448.43329880 Ry
     estimated scf accuracy    <      14.32394488 Ry

     iteration #  4     ecut=   124.00 Ry     beta= 0.70
     Davidson diagonalization with overlap
     ethr =  1.00E-02,  avg # of iterations =  2.2

     negative rho (up, down):  2.980E-04 0.000E+00

     total cpu time spent up to now is        7.0 secs

     total energy              =    -448.97788609 Ry
     estimated scf accuracy    <       3.53136674 Ry

     iteration #  5     ecut=   124.00 Ry     beta= 0.70
     Davidson diagonalization with overlap
     ethr =  1.00E-02,  avg # of iterations =  1.0

     negative rho (up, down):  4.755E-04 0.000E+00

     total cpu time spent up to now is        7.9 secs

     total energy              =    -448.53445488 Ry
     estimated scf accuracy    <       3.26119914 Ry

     iteration #  6     ecut=   124.00 Ry     beta= 0.70
     Davidson diagonalization with overlap
     ethr =  1.00E-02,  avg # of iterations =  1.3

     negative rho (up, down):  4.950E-04 0.000E+00

     total cpu time spent up to now is        8.8 secs

     total energy              =    -448.67352566 Ry
     estimated scf accuracy    <       0.59555328 Ry

     iteration #  7     ecut=   124.00 Ry     beta= 0.70
     Davidson diagonalization with overlap
     ethr =  2.13E-03,  avg # of iterations =  1.6

     negative rho (up, down):  1.041E-03 0.000E+00

     total cpu time spent up to now is        9.7 secs

     total energy              =    -448.48540141 Ry
     estimated scf accuracy    <       0.66847829 Ry

     iteration #  8     ecut=   124.00 Ry     beta= 0.70
     Davidson diagonalization with overlap
     ethr =  2.13E-03,  avg # of iterations =  2.7

     negative rho (up, down):  1.158E-03 0.000E+00

     total cpu time spent up to now is       10.7 secs

     total energy              =    -448.56332449 Ry
     estimated scf accuracy    <       0.05857944 Ry

     iteration #  9     ecut=   124.00 Ry     beta= 0.70
     Davidson diagonalization with overlap
     ethr =  2.09E-04,  avg # of iterations =  4.9

     negative rho (up, down):  1.160E-03 0.000E+00

     total cpu time spent up to now is       12.0 secs

     total energy              =    -448.60486852 Ry
     estimated scf accuracy    <       0.65954193 Ry

     iteration # 10     ecut=   124.00 Ry     beta= 0.70
     Davidson diagonalization with overlap
     ethr =  2.09E-04,  avg # of iterations =  1.0

     negative rho (up, down):  1.183E-03 0.000E+00

     total cpu time spent up to now is       12.9 secs

     total energy              =    -448.60958297 Ry
     estimated scf accuracy    <       0.67154774 Ry

     iteration # 11     ecut=   124.00 Ry     beta= 0.70
     Davidson diagonalization with overlap
     ethr =  2.09E-04,  avg # of iterations =  1.1

     negative rho (up, down):  1.644E-03 0.000E+00

     total cpu time spent up to now is       13.7 secs

     total energy              =    -448.66283792 Ry
     estimated scf accuracy    <       0.73933849 Ry

     iteration # 12     ecut=   124.00 Ry     beta= 0.70
     Davidson diagonalization with overlap
     ethr =  2.09E-04,  avg # of iterations =  3.7

     negative rho (up, down):  1.573E-03 0.000E+00

     total cpu time spent up to now is       14.7 secs

     total energy              =    -448.52301027 Ry
     estimated scf accuracy    <       2.04392632 Ry

     iteration # 13     ecut=   124.00 Ry     beta= 0.70
     Davidson diagonalization with overlap
     ethr =  2.09E-04,  avg # of iterations =  3.9

     negative rho (up, down):  1.504E-03 0.000E+00

     total cpu time spent up to now is       15.8 secs

     total energy              =    -448.55329409 Ry
     estimated scf accuracy    <       0.18013872 Ry

     iteration # 14     ecut=   124.00 Ry     beta= 0.70
     Davidson diagonalization with overlap
     ethr =  2.09E-04,  avg # of iterations =  3.2

     negative rho (up, down):  1.084E-03 0.000E+00

     total cpu time spent up to now is       16.8 secs

     total energy              =    -448.55751257 Ry
     estimated scf accuracy    <       0.04795558 Ry

     iteration # 15     ecut=   124.00 Ry     beta= 0.70
     Davidson diagonalization with overlap
     ethr =  1.71E-04,  avg # of iterations =  2.0

     negative rho (up, down):  7.846E-04 0.000E+00

     total cpu time spent up to now is       17.7 secs

     total energy              =    -448.56045073 Ry
     estimated scf accuracy    <       0.00403980 Ry

     iteration # 16     ecut=   124.00 Ry     beta= 0.70
     Davidson diagonalization with overlap
     ethr =  1.44E-05,  avg # of iterations =  5.4

     negative rho (up, down):  8.725E-04 0.000E+00

     total cpu time spent up to now is       19.1 secs

     total energy              =    -448.56164573 Ry
     estimated scf accuracy    <       0.02300649 Ry

     iteration # 17     ecut=   124.00 Ry     beta= 0.70
     Davidson diagonalization with overlap
     ethr =  1.44E-05,  avg # of iterations =  2.1

     negative rho (up, down):  9.599E-04 0.000E+00

     total cpu time spent up to now is       20.1 secs

     total energy              =    -448.56069024 Ry
     estimated scf accuracy    <       0.00598764 Ry

     iteration # 18     ecut=   124.00 Ry     beta= 0.70
     Davidson diagonalization with overlap
     ethr =  1.44E-05,  avg # of iterations =  3.6

     negative rho (up, down):  9.619E-04 0.000E+00

     total cpu time spent up to now is       21.1 secs

     total energy              =    -448.56154951 Ry
     estimated scf accuracy    <       0.00002191 Ry

     iteration # 19     ecut=   124.00 Ry     beta= 0.70
     Davidson diagonalization with overlap
     ethr =  7.82E-08,  avg # of iterations =  5.2

     negative rho (up, down):  9.494E-04 0.000E+00

     total cpu time spent up to now is       22.4 secs

     total energy              =    -448.56156586 Ry
     estimated scf accuracy    <       0.00004944 Ry

     iteration # 20     ecut=   124.00 Ry     beta= 0.70
     Davidson diagonalization with overlap
     ethr =  7.82E-08,  avg # of iterations =  4.1

     negative rho (up, down):  9.518E-04 0.000E+00

     total cpu time spent up to now is       23.6 secs

     total energy              =    -448.56158071 Ry
     estimated scf accuracy    <       0.00005994 Ry

     iteration # 21     ecut=   124.00 Ry     beta= 0.70
     Davidson diagonalization with overlap
     ethr =  7.82E-08,  avg # of iterations =  1.0

     negative rho (up, down):  9.540E-04 0.000E+00

     total cpu time spent up to now is       24.4 secs

     total energy              =    -448.56157809 Ry
     estimated scf accuracy    <       0.00001766 Ry

     iteration # 22     ecut=   124.00 Ry     beta= 0.70
     Davidson diagonalization with overlap
     ethr =  6.31E-08,  avg # of iterations =  2.1

     negative rho (up, down):  9.542E-04 0.000E+00

     total cpu time spent up to now is       25.4 secs

     total energy              =    -448.56157981 Ry
     estimated scf accuracy    <       0.00000007 Ry

     iteration # 23     ecut=   124.00 Ry     beta= 0.70
     Davidson diagonalization with overlap
     ethr =  2.33E-10,  avg # of iterations =  5.5

     negative rho (up, down):  9.541E-04 0.000E+00

     total cpu time spent up to now is       26.7 secs

     total energy              =    -448.56157990 Ry
     estimated scf accuracy    <       0.00000013 Ry

     iteration # 24     ecut=   124.00 Ry     beta= 0.70
     Davidson diagonalization with overlap
     ethr =  2.33E-10,  avg # of iterations =  2.4

     negative rho (up, down):  9.540E-04 0.000E+00

     total cpu time spent up to now is       27.7 secs

     End of self-consistent calculation

          k = 0.0000 0.0000 0.0000 (  3575 PWs)   bands (ev):

   -66.5885 -36.1888 -32.6560 -32.6560 -32.6560 -12.2336 -12.2336 -12.2336
    12.5063  15.8488  15.8488  19.1954  19.1954  19.1954  21.9152  21.9152
    24.2154  24.2154

          k = 0.0000 0.0000 0.0909 (  3543 PWs)   bands (ev):

   -66.5880 -36.1861 -32.6591 -32.6553 -32.6553 -12.2791 -12.2312 -12.2312
    12.7011  15.9443  15.9672  19.1813  19.1813  19.2401  21.7839  21.9664
    23.9134  23.9134

          k = 0.0000 0.0000 0.1818 (  3543 PWs)   bands (ev):

   -66.5866 -36.1789 -32.6674 -32.6534 -32.6534 -12.3999 -12.2249 -12.2249
    13.2617  16.2244  16.2811  19.1502  19.1502  19.3655  21.4060  22.0893
    23.2152  23.2152

          k = 0.0000 0.0000 0.2727 (  3527 PWs)   bands (ev):

   -66.5847 -36.1695 -32.6780 -32.6510 -32.6510 -12.5554 -12.2167 -12.2167
    14.1181  16.6672  16.6676  19.1274  19.1274  19.5443  20.8316  22.1710
    22.4450  22.4450

          k = 0.0000 0.0000 0.3636 (  3515 PWs)   bands (ev):

   -66.5830 -36.1609 -32.6876 -32.6487 -32.6487 -12.6957 -12.2091 -12.2091
    15.1461  16.9256  17.2202  19.1313  19.1313  19.7274  20.1545  21.8126
    21.8126  22.0202

          k = 0.0000 0.0000 0.4545 (  3522 PWs)   bands (ev):

   -66.5820 -36.1559 -32.6932 -32.6474 -32.6474 -12.7780 -12.2045 -12.2045
    16.1286  16.8097  17.7241  19.1503  19.1503  19.5756  19.8474  21.4522
    21.4522  21.7033

          k = 0.0000 0.0909 0.0909 (  3539 PWs)   bands (ev):

   -66.5874 -36.1830 -32.6617 -32.6556 -32.6546 -12.2821 -12.2703 -12.2287
    12.8910  16.0435  16.0774  19.0797  19.1581  19.3592  21.7661  21.9303
    23.5798  23.6143

          k = 0.0000 0.0909 0.1818 (  3542 PWs)   bands (ev):

   -66.5860 -36.1749 -32.6698 -32.6554 -32.6528 -12.3964 -12.2677 -12.2220
    13.4361  16.3047  16.3949  18.9835  19.1030  19.5032  21.4753  22.0379
    22.9386  22.9676

          k = 0.0000 0.0909 0.2727 (  3534 PWs)   bands (ev):

   -66.5842 -36.1643 -32.6806 -32.6547 -32.6504 -12.5497 -12.2579 -12.2131
    14.2635  16.6849  16.8115  18.9354  19.0437  19.6065  20.9857  22.0348
    22.3513  22.3712

          k = 0.0000 0.0909 0.3636 (  3523 PWs)   bands (ev):

   -66.5825 -36.1546 -32.6902 -32.6541 -32.6482 -12.6882 -12.2488 -12.2050
    15.2455  16.9627  17.2860  18.9514  18.9889  19.6092  20.4348  21.5416
    21.9767  22.2436

          k = 0.0000 0.0909 0.4545 (  3522 PWs)   bands (ev):

   -66.5815 -36.1489 -32.6958 -32.6538 -32.6469 -12.7694 -12.2434 -12.2002
    16.1691  16.8416  17.7319  18.9026  19.0081  19.5319  20.0525  21.2107
    21.8225  22.0537

          k = 0.0000 0.1818 0.1818 (  3551 PWs)   bands (ev):

   -66.5846 -36.1642 -32.6772 -32.6597 -32.6510 -12.4006 -12.3676 -12.2141
    13.9302  16.4891  16.7389  18.7716  18.9993  19.6032  21.5439  21.9850
    22.3341  22.5747

          k = 0.0000 0.1818 0.2727 (  3534 PWs)   bands (ev):

   -66.5828 -36.1503 -32.6876 -32.6644 -32.6487 -12.5349 -12.3671 -12.2037
    14.6569  16.7185  17.2093  18.6272  18.9103  19.5133  21.3228  21.7159
    22.1816  22.3635

          k = 0.0000 0.1818 0.3636 (  3534 PWs)   bands (ev):

   -66.5811 -36.1375 -32.6973 -32.6684 -32.6466 -12.6680 -12.3545 -12.1941
    15.4689  16.8606  17.6710  18.5887  18.9011  19.2547  20.9562  21.3295
    22.3757  22.3965

          k = 0.0000 0.1818 0.4545 (  3524 PWs)   bands (ev):

   -66.5801 -36.1300 -32.7030 -32.6708 -32.6453 -12.7464 -12.3467 -12.1884
    16.1562  16.7594  17.9806  18.6604  18.9724  18.9803  20.7580  21.0537
    22.4528  22.5212

          k = 0.0000 0.2727 0.2727 (  3533 PWs)   bands (ev):

   -66.5810 -36.1319 -32.6974 -32.6764 -32.6465 -12.5308 -12.4924 -12.1913
    15.1731  16.7199  17.7641  18.3764  18.9013  19.1897  21.4585  21.5977
    22.0804  22.5761

          k = 0.0000 0.2727 0.3636 (  3526 PWs)   bands (ev):

   -66.5793 -36.1150 -32.7069 -32.6869 -32.6446 -12.6418 -12.4905 -12.1799
    15.6426  16.6464  18.2471  18.3075  18.7954  19.1471  21.2581  21.5800
    22.3110  22.9135

          k = 0.0000 0.2727 0.4545 (  3527 PWs)   bands (ev):

   -66.5784 -36.1050 -32.7126 -32.6930 -32.6434 -12.7162 -12.4800 -12.1730
    15.9401  16.5279  18.2681  18.4737  18.6101  19.6029  20.9913  21.5137
    22.6224  23.2161

          k = 0.0000 0.3636 0.3636 (  3526 PWs)   bands (ev):

   -66.5777 -36.0942 -32.7160 -32.7035 -32.6427 -12.6266 -12.6045 -12.1667
    15.6816  16.4340  18.0238  18.3771  19.0322  19.6769  21.4478  22.0034
    22.1398  23.4019

          k = 0.0000 0.3636 0.4545 (  3520 PWs)   bands (ev):

   -66.5767 -36.0818 -32.7216 -32.7133 -32.6416 -12.6883 -12.6005 -12.1588
    15.6615  16.3062  17.9642  18.0871  19.4817  20.4218  21.1908  22.0897
    22.4337  23.7688

          k = 0.0000 0.4545 0.4545 (  3514 PWs)   bands (ev):

   -66.5758 -36.0679 -32.7271 -32.7254 -32.6405 -12.6730 -12.6700 -12.1504
    15.4868  16.1785  17.8196  17.8611  20.2592  20.8672  21.7289  21.9471
    22.4041  24.0964

          k = 0.0909 0.0909 0.0909 (  3551 PWs)   bands (ev):

   -66.5869 -36.1797 -32.6610 -32.6610 -32.6527 -12.2838 -12.2679 -12.2679
    13.0769  16.1633  16.1633  19.0537  19.0537  19.4572  21.8318  21.8318
    23.0816  23.8896

          k = 0.0909 0.0909 0.1818 (  3537 PWs)   bands (ev):

   -66.5855 -36.1707 -32.6707 -32.6591 -32.6522 -12.3926 -12.2676 -12.2615
    13.6092  16.4136  16.4789  18.9215  18.9857  19.5620  21.5483  21.9904
    22.5167  23.1901

          k = 0.0909 0.0909 0.2727 (  3541 PWs)   bands (ev):

   -66.5837 -36.1590 -32.6822 -32.6566 -32.6525 -12.5441 -12.2556 -12.2531
    14.4123  16.8033  16.8562  18.8582  18.8942  19.5568  21.1231  21.9561
    22.3028  22.4348

          k = 0.0909 0.0909 0.3636 (  3530 PWs)   bands (ev):

   -66.5820 -36.1483 -32.6923 -32.6543 -32.6531 -12.6810 -12.2454 -12.2444
    15.3551  17.0736  17.2767  18.7798  18.9076  19.4450  20.6543  21.6558
    21.8328  22.4544

          k = 0.0909 0.0909 0.4545 (  3510 PWs)   bands (ev):

   -66.5810 -36.1420 -32.6982 -32.6535 -32.6529 -12.7613 -12.2407 -12.2377
    16.2311  16.9111  17.6926  18.6331  19.0633  19.3297  20.3253  21.3601
    21.5006  22.6011

          k = 0.0909 0.1818 0.1818 (  3544 PWs)   bands (ev):

   -66.5841 -36.1595 -32.6764 -32.6635 -32.6527 -12.3953 -12.3652 -12.2559
    14.0988  16.6190  16.7962  18.7290  18.8619  19.5248  21.6308  21.9495
    22.1888  22.8506

          k = 0.0909 0.1818 0.2727 (  3536 PWs)   bands (ev):

   -66.5823 -36.1449 -32.6876 -32.6659 -32.6530 -12.5295 -12.3635 -12.2447
    14.8152  16.8607  17.2330  18.5784  18.7613  19.3032  21.4370  21.8653
    22.2151  22.4462

          k = 0.0909 0.1818 0.3636 (  3528 PWs)   bands (ev):

   -66.5806 -36.1315 -32.6983 -32.6684 -32.6523 -12.6618 -12.3507 -12.2342
    15.6072  17.0140  17.6109  18.5011  18.7750  19.0762  21.1379  21.4755
    22.0715  22.7933

          k = 0.0909 0.1818 0.4545 (  3520 PWs)   bands (ev):

   -66.5796 -36.1235 -32.7045 -32.6702 -32.6516 -12.7396 -12.3430 -12.2279
    16.2713  16.8909  17.8434  18.4462  18.8742  19.0581  20.9351  21.1476
    21.8440  23.2820

          k = 0.0909 0.2727 0.2727 (  3533 PWs)   bands (ev):

   -66.5805 -36.1264 -32.6966 -32.6777 -32.6519 -12.5244 -12.4899 -12.2320
    15.3415  16.8685  17.7734  18.3349  18.7303  18.9403  21.6000  21.7769
    22.0620  22.7537

          k = 0.0909 0.2727 0.3636 (  3516 PWs)   bands (ev):

   -66.5788 -36.1093 -32.7066 -32.6871 -32.6505 -12.6368 -12.4871 -12.2201
    15.8069  16.7955  18.1713  18.2545  18.6739  18.9710  21.3577  21.6843
    22.1589  23.2595

          k = 0.0909 0.2727 0.4545 (  3516 PWs)   bands (ev):

   -66.5779 -36.0991 -32.7131 -32.6923 -32.6496 -12.7111 -12.4768 -12.2131
    16.0863  16.6750  18.1696  18.2575  18.6841  19.4770  21.0405  21.6355
    22.0980  23.8306

          k = 0.0909 0.3636 0.3636 (  3523 PWs)   bands (ev):

   -66.5772 -36.0888 -32.7151 -32.7037 -32.6488 -12.6220 -12.6021 -12.2072
    15.8455  16.5832  17.9907  18.2749  18.9863  19.4695  21.3820  21.9965
    22.1187  23.7933

          k = 0.0909 0.3636 0.4545 (  3524 PWs)   bands (ev):

   -66.5762 -36.0765 -32.7212 -32.7126 -32.6477 -12.6849 -12.5978 -12.1994
    15.8151  16.4576  17.9300  18.0310  19.4053  20.2173  21.1201  21.9689
    22.2347  24.0441

          k = 0.0909 0.4545 0.4545 (  3524 PWs)   bands (ev):

   -66.5753 -36.0629 -32.7261 -32.7245 -32.6466 -12.6705 -12.6677 -12.1913
    15.6424  16.3314  17.7974  17.8340  20.2048  20.7448  21.3641  21.5183
    22.4897  24.3024

          k = 0.1818 0.1818 0.1818 (  3542 PWs)   bands (ev):

   -66.5828 -36.1469 -32.6743 -32.6743 -32.6567 -12.3894 -12.3586 -12.3586
    14.5717  16.9589  16.9589  18.6167  18.6167  19.2167  21.8444  21.8444
    22.2699  23.1422

          k = 0.1818 0.1818 0.2727 (  3521 PWs)   bands (ev):

   -66.5809 -36.1304 -32.6885 -32.6716 -32.6617 -12.5153 -12.3571 -12.3499
    15.2470  17.1979  17.3357  18.4613  18.4690  18.8371  21.6839  21.9729
    22.4165  22.6451

          k = 0.1818 0.1818 0.3636 (  3524 PWs)   bands (ev):

   -66.5793 -36.1153 -32.7013 -32.6691 -32.6665 -12.6451 -12.3419 -12.3393
    15.9516  17.3976  17.4613  18.3192  18.5300  18.7496  21.5119  21.7058
    21.8537  23.3249

          k = 0.1818 0.1818 0.4545 (  3515 PWs)   bands (ev):

   -66.5783 -36.1062 -32.7088 -32.6694 -32.6676 -12.7215 -12.3372 -12.3285
    16.4961  17.1156  17.6639  18.2002  18.6874  19.0160  21.2459  21.4036
    21.5422  23.7259

          k = 0.1818 0.2727 0.2727 (  3531 PWs)   bands (ev):

   -66.5792 -36.1114 -32.6943 -32.6817 -32.6659 -12.5075 -12.4833 -12.3400
    15.8092  17.2714  17.7914  18.2317  18.3440  18.4432  21.7478  21.9779
    22.2773  23.2290

          k = 0.1818 0.2727 0.3636 (  3520 PWs)   bands (ev):

   -66.5775 -36.0939 -32.7061 -32.6876 -32.6665 -12.6234 -12.4778 -12.3272
    16.2619  17.1826  17.9340  18.1172  18.4637  18.5903  21.4913  21.7873
    22.1470  23.5356

          k = 0.1818 0.2727 0.4545 (  3511 PWs)   bands (ev):

   -66.5765 -36.0834 -32.7145 -32.6905 -32.6662 -12.6976 -12.4684 -12.3194
    16.4775  17.0274  17.8728  18.0730  18.6018  19.1817  21.1061  21.5826
    22.0325  23.8081

          k = 0.1818 0.3636 0.3636 (  3514 PWs)   bands (ev):

   -66.5759 -36.0741 -32.7126 -32.7042 -32.6650 -12.6095 -12.5958 -12.3147
    16.3115  16.9688  17.9099  18.0617  18.8406  18.9468  21.3383  21.6488
    22.4644  23.7261

          k = 0.1818 0.3636 0.4545 (  3517 PWs)   bands (ev):

   -66.5749 -36.0622 -32.7199 -32.7106 -32.6641 -12.6757 -12.5906 -12.3072
    16.2493  16.8485  17.8484  17.9181  19.1425  19.6815  21.0402  21.4496
    22.5580  24.0194

          k = 0.1818 0.4545 0.4545 (  3517 PWs)   bands (ev):

   -66.5739 -36.0496 -32.7235 -32.7223 -32.6628 -12.6635 -12.6616 -12.3000
    16.0873  16.7367  17.7476  17.7763  19.9253  20.1108  20.9287  21.1102
    22.7923  24.3617

          k = 0.2727 0.2727 0.2727 (  3518 PWs)   bands (ev):

   -66.5774 -36.0917 -32.6912 -32.6912 -32.6799 -12.4899 -12.4747 -12.4747
    16.4311  17.7926  17.7926  17.8769  18.1179  18.1179  21.7740  21.7740
    22.8318  22.8318

          k = 0.2727 0.2727 0.3636 (  3525 PWs)   bands (ev):

   -66.5757 -36.0735 -32.7065 -32.6885 -32.6862 -12.6061 -12.4667 -12.4639
    16.8319  17.4761  17.7630  18.0390  18.1609  18.4133  21.4977  21.5201
    22.6459  23.4276

          k = 0.2727 0.2727 0.4545 (  3522 PWs)   bands (ev):

   -66.5748 -36.0627 -32.7165 -32.6891 -32.6868 -12.6799 -12.4620 -12.4518
    16.8682  17.2730  17.7314  18.0021  18.4464  18.9708  21.0407  21.3649
    22.5805  23.8438

          k = 0.2727 0.3636 0.3636 (  3526 PWs)   bands (ev):

   -66.5741 -36.0547 -32.7093 -32.7048 -32.6863 -12.5932 -12.5874 -12.4535
    16.9762  17.3679  17.8271  17.9909  18.3516  18.5952  21.2828  21.3047
    23.0127  23.6631

          k = 0.2727 0.3636 0.4545 (  3514 PWs)   bands (ev):

   -66.5732 -36.0435 -32.7186 -32.7079 -32.6855 -12.6637 -12.5812 -12.4463
    16.8561  17.2740  17.7813  17.9019  18.7084  19.1058  20.9135  21.1848
    23.0885  24.0579

          k = 0.2727 0.4545 0.4545 (  3513 PWs)   bands (ev):

   -66.5722 -36.0320 -32.7201 -32.7194 -32.6841 -12.6544 -12.6536 -12.4402
    16.7460  17.2402  17.7131  17.7587  19.3176  19.3253  20.7013  21.0091
    23.3073  24.4056

          k = 0.3636 0.3636 0.3636 (  3527 PWs)   bands (ev):

   -66.5725 -36.0368 -32.7063 -32.7063 -32.7050 -12.5798 -12.5798 -12.5774
    17.2749  17.7949  17.7949  17.9530  18.2997  18.2997  21.0863  21.0863
    23.6691  23.6691

          k = 0.3636 0.3636 0.4545 (  3510 PWs)   bands (ev):

   -66.5716 -36.0262 -32.7174 -32.7058 -32.7045 -12.6527 -12.5752 -12.5693
    17.2796  17.5276  17.8516  18.0398  18.3806  18.7217  20.7907  20.9909
    23.6844  24.1665

          k = 0.3636 0.4545 0.4545 (  3514 PWs)   bands (ev):

   -66.5706 -36.0158 -32.7169 -32.7168 -32.7035 -12.6462 -12.6460 -12.5669
    17.4088  17.6451  17.7477  17.9193  18.6643  18.7041  20.6467  20.8398
    23.9536  24.4415

          k = 0.4545 0.4545 0.4545 (  3514 PWs)   bands (ev):

   -66.5697 -36.0062 -32.7153 -32.7150 -32.7150 -12.6419 -12.6419 -12.6406
    17.7029  17.8985  17.8985  18.2264  18.2264  18.3071  20.6341  20.6341
    24.4622  24.4622

     the Fermi energy is    20.3637 ev

!    total energy              =    -448.56157991 Ry
     estimated scf accuracy    <          2.7E-10 Ry
     smearing contrib. (-TS)   =       0.00002355 Ry
     internal energy E=F+TS    =    -448.56160346 Ry

     The total energy is F=E-TS. E is the sum of the following terms:
     one-electron contribution =    -134.42472308 Ry
     hartree contribution      =      86.03141608 Ry
     xc contribution           =     -53.12987226 Ry
     ewald contribution        =    -270.88208055 Ry
     one-center paw contrib.   =     -76.15634364 Ry

     convergence has been achieved in  24 iterations

     negative rho (up, down):  9.540E-04 0.000E+00

     Forces acting on atoms (cartesian axes, Ry/au):

     atom    1 type  1   force =     0.00000000    0.00000000    0.00000000
     atom    2 type  2   force =     0.00000000    0.00000000    0.00000000

     Total force =     0.000000     Total SCF correction =     0.000000


     Computing stress (Cartesian axis) and pressure


     negative rho (up, down):  9.540E-04 0.000E+00
          total   stress  (Ry/bohr**3)                   (kbar)     P=      361.95
   0.00246047   0.00000000   0.00000000          361.95        0.00        0.00
   0.00000000   0.00246047   0.00000000            0.00      361.95        0.00
   0.00000000   0.00000000   0.00246047            0.00        0.00      361.95


     Writing all to output data dir ./TiFe.save/ :
     XML data file, charge density, pseudopotentials, collected wavefunctions

     init_run     :      1.46s CPU      1.63s WALL (       1 calls)
     electrons    :     23.98s CPU     25.51s WALL (       1 calls)
     forces       :      0.22s CPU      0.24s WALL (       1 calls)
     stress       :      1.24s CPU      1.29s WALL (       1 calls)

     Called by init_run:
     wfcinit      :      0.29s CPU      0.39s WALL (       1 calls)
     potinit      :      0.37s CPU      0.39s WALL (       1 calls)
     hinit0       :      0.64s CPU      0.68s WALL (       1 calls)

     Called by electrons:
     c_bands      :     15.15s CPU     15.59s WALL (      24 calls)
     sum_band     :      4.61s CPU      5.04s WALL (      24 calls)
     v_of_rho     :      0.43s CPU      0.48s WALL (      25 calls)
     newd         :      2.51s CPU      2.94s WALL (      25 calls)
     PAW_pot      :      1.37s CPU      1.53s WALL (      25 calls)
     mix_rho      :      0.04s CPU      0.05s WALL (      24 calls)

     Called by c_bands:
     init_us_2    :      0.39s CPU      0.40s WALL (    2856 calls)
     cegterg      :     14.46s CPU     14.85s WALL (    1344 calls)

     Called by *egterg:
     cdiaghg      :      1.83s CPU      1.95s WALL (    5319 calls)
     h_psi        :     10.82s CPU     11.09s WALL (    5375 calls)
     s_psi        :      0.28s CPU      0.29s WALL (    5375 calls)
     g_psi        :      0.06s CPU      0.06s WALL (    3975 calls)

     Called by h_psi:
     h_psi:calbec :      0.59s CPU      0.60s WALL (    5375 calls)
     vloc_psi     :      9.87s CPU     10.12s WALL (    5375 calls)
     add_vuspsi   :      0.30s CPU      0.31s WALL (    5375 calls)

     General routines
     calbec       :      0.84s CPU      0.86s WALL (    7671 calls)
     fft          :      0.74s CPU      0.81s WALL (     348 calls)
     ffts         :      0.29s CPU      0.29s WALL (      49 calls)
     fftw         :      9.48s CPU      9.72s WALL (  150856 calls)
     interpolate  :      0.31s CPU      0.31s WALL (      25 calls)

     Parallel routines

     PWSCF        :     27.19s CPU     29.52s WALL


   This run was terminated on:   0:35:34  25Oct2025            

=------------------------------------------------------------------------------=
   JOB DONE.
=------------------------------------------------------------------------------=
