
     Program PWSCF v.7.4 starts on 25Oct2025 at 15:19:41 

     This program is part of the open-source Quantum ESPRESSO suite
     for quantum simulation of materials; please cite
         "P. Giannozzi et al., J. Phys.:Condens. Matter 21 395502 (2009);
         "P. Giannozzi et al., J. Phys.:Condens. Matter 29 465901 (2017);
         "P. Giannozzi et al., J. Chem. Phys. 152 154105 (2020);
          URL http://www.quantum-espresso.org", 
     in publications or presentations arising from this work. More details at
     http://www.quantum-espresso.org/quote

     Parallel version (MPI & OpenMP), running on       8 processor cores
     Number of MPI processes:                 8
     Threads/MPI process:                     1

     MPI processes distributed on     1 nodes
     225426 MiB available memory on the printing compute node when the environment starts

     Reading input from TiFe_relaxed2.in

     Current dimensions of program PWSCF are:
     Max number of different atomic species (ntypx) = 10
     Max number of k-points (npk) =  40000
     Max angular momentum in pseudopotentials (lmaxx) =  4
     file Fe.pbe-spn-kjpaw_psl.0.2.1.UPF: wavefunction(s)  3D renormalized

     IMPORTANT: XC functional enforced from input :
     Exchange-correlation= PBE
                           (   1   4   3   4   0   0   0)
     Any further DFT definition will be discarded
     Please, verify this is what you really want

     Message from routine setup:
     using ibrav=0 with symmetry is DISCOURAGED, use correct ibrav instead

     R & G space division:  proc/nbgrp/npool/nimage =       8
     Subspace diagonalization in iterative solution of the eigenvalue problem:
     a serial algorithm will be used


     Parallelization info
     --------------------
     sticks:   dense  smooth     PW     G-vecs:    dense   smooth      PW
     Min         532     151     43                26154     3989     617
     Max         533     152     44                26155     3993     620
     Sum        4257    1209    349               209233    31919    4945

     Using Slab Decomposition



     bravais-lattice index     =            0
     lattice parameter (alat)  =       5.5533  a.u.
     unit-cell volume          =     171.2590 (a.u.)^3
     number of atoms/cell      =            2
     number of atomic types    =            2
     number of electrons       =        28.00
     number of Kohn-Sham states=           18
     kinetic-energy cutoff     =     124.0000  Ry
     charge density cutoff     =    1736.0000  Ry
     scf convergence threshold =      1.0E-08
     mixing beta               =       0.7000
     number of iterations used =            8  plain     mixing
     energy convergence thresh.=      1.0E-04
     force convergence thresh. =      1.0E-03
     press convergence thresh. =      5.0E-01
     Exchange-correlation= PBE
                           (   1   4   3   4   0   0   0)
     nstep                     =           50


     celldm(1)=   5.553300  celldm(2)=   0.000000  celldm(3)=   0.000000
     celldm(4)=   0.000000  celldm(5)=   0.000000  celldm(6)=   0.000000

     crystal axes: (cart. coord. in units of alat)
               a(1) = (   1.000000   0.000000   0.000000 )  
               a(2) = (   0.000000   1.000000   0.000000 )  
               a(3) = (   0.000000   0.000000   1.000000 )  

     reciprocal axes: (cart. coord. in units 2 pi/alat)
               b(1) = (  1.000000  0.000000  0.000000 )  
               b(2) = (  0.000000  1.000000  0.000000 )  
               b(3) = (  0.000000  0.000000  1.000000 )  


     PseudoPot. # 1 for Fe read from file:
     ../../pseudos/Fe.pbe-spn-kjpaw_psl.0.2.1.UPF
     MD5 check sum: e86618425769142926afa95317d90200
     Pseudo is Projector augmented-wave + core cor, Zval = 16.0
     Generated using "atomic" code by A. Dal Corso  v.5.0.99 svn rev. 10869
     Shape of augmentation charge: PSQ
     Using radial grid of 1191 points,  6 beta functions with: 
                l(1) =   0
                l(2) =   0
                l(3) =   1
                l(4) =   1
                l(5) =   2
                l(6) =   2
     Q(r) pseudized with 0 coefficients 


     PseudoPot. # 2 for Ti read from file:
     ../../pseudos/ti_pbe_v1.4.uspp.F.UPF
     MD5 check sum: 88a00a6731bd790ddea75d31a80cb452
     Pseudo is Ultrasoft + core correction, Zval = 12.0
     Generated by new atomic code, or converted to UPF format
     Using radial grid of  851 points,  6 beta functions with: 
                l(1) =   0
                l(2) =   0
                l(3) =   1
                l(4) =   1
                l(5) =   2
                l(6) =   2
     Q(r) pseudized with  6 coefficients,  rinner =    1.000   1.000   1.000
                                                       1.000   1.000

     atomic species   valence    mass     pseudopotential
     Fe               16.00    55.84500     Fe( 1.00)
     Ti               12.00    47.86700     Ti( 1.00)

     48 Sym. Ops., with inversion, found



   Cartesian axes

     site n.     atom                  positions (alat units)
         1        Fe     tau(   1) = (   0.5000000   0.5000000   0.5000000  )
         2        Ti     tau(   2) = (   0.0000000   0.0000000   0.0000000  )

     number of k points=    56  Marzari-Vanderbilt smearing, width (Ry)=  0.0050
                       cart. coord. in units 2pi/alat
        k(    1) = (   0.0000000   0.0000000   0.0000000), wk =   0.0015026
        k(    2) = (   0.0000000   0.0000000   0.0909091), wk =   0.0090158
        k(    3) = (   0.0000000   0.0000000   0.1818182), wk =   0.0090158
        k(    4) = (   0.0000000   0.0000000   0.2727273), wk =   0.0090158
        k(    5) = (   0.0000000   0.0000000   0.3636364), wk =   0.0090158
        k(    6) = (   0.0000000   0.0000000   0.4545455), wk =   0.0090158
        k(    7) = (   0.0000000   0.0909091   0.0909091), wk =   0.0180316
        k(    8) = (   0.0000000   0.0909091   0.1818182), wk =   0.0360631
        k(    9) = (   0.0000000   0.0909091   0.2727273), wk =   0.0360631
        k(   10) = (   0.0000000   0.0909091   0.3636364), wk =   0.0360631
        k(   11) = (   0.0000000   0.0909091   0.4545455), wk =   0.0360631
        k(   12) = (   0.0000000   0.1818182   0.1818182), wk =   0.0180316
        k(   13) = (   0.0000000   0.1818182   0.2727273), wk =   0.0360631
        k(   14) = (   0.0000000   0.1818182   0.3636364), wk =   0.0360631
        k(   15) = (   0.0000000   0.1818182   0.4545455), wk =   0.0360631
        k(   16) = (   0.0000000   0.2727273   0.2727273), wk =   0.0180316
        k(   17) = (   0.0000000   0.2727273   0.3636364), wk =   0.0360631
        k(   18) = (   0.0000000   0.2727273   0.4545455), wk =   0.0360631
        k(   19) = (   0.0000000   0.3636364   0.3636364), wk =   0.0180316
        k(   20) = (   0.0000000   0.3636364   0.4545455), wk =   0.0360631
        k(   21) = (   0.0000000   0.4545455   0.4545455), wk =   0.0180316
        k(   22) = (   0.0909091   0.0909091   0.0909091), wk =   0.0120210
        k(   23) = (   0.0909091   0.0909091   0.1818182), wk =   0.0360631
        k(   24) = (   0.0909091   0.0909091   0.2727273), wk =   0.0360631
        k(   25) = (   0.0909091   0.0909091   0.3636364), wk =   0.0360631
        k(   26) = (   0.0909091   0.0909091   0.4545455), wk =   0.0360631
        k(   27) = (   0.0909091   0.1818182   0.1818182), wk =   0.0360631
        k(   28) = (   0.0909091   0.1818182   0.2727273), wk =   0.0721262
        k(   29) = (   0.0909091   0.1818182   0.3636364), wk =   0.0721262
        k(   30) = (   0.0909091   0.1818182   0.4545455), wk =   0.0721262
        k(   31) = (   0.0909091   0.2727273   0.2727273), wk =   0.0360631
        k(   32) = (   0.0909091   0.2727273   0.3636364), wk =   0.0721262
        k(   33) = (   0.0909091   0.2727273   0.4545455), wk =   0.0721262
        k(   34) = (   0.0909091   0.3636364   0.3636364), wk =   0.0360631
        k(   35) = (   0.0909091   0.3636364   0.4545455), wk =   0.0721262
        k(   36) = (   0.0909091   0.4545455   0.4545455), wk =   0.0360631
        k(   37) = (   0.1818182   0.1818182   0.1818182), wk =   0.0120210
        k(   38) = (   0.1818182   0.1818182   0.2727273), wk =   0.0360631
        k(   39) = (   0.1818182   0.1818182   0.3636364), wk =   0.0360631
        k(   40) = (   0.1818182   0.1818182   0.4545455), wk =   0.0360631
        k(   41) = (   0.1818182   0.2727273   0.2727273), wk =   0.0360631
        k(   42) = (   0.1818182   0.2727273   0.3636364), wk =   0.0721262
        k(   43) = (   0.1818182   0.2727273   0.4545455), wk =   0.0721262
        k(   44) = (   0.1818182   0.3636364   0.3636364), wk =   0.0360631
        k(   45) = (   0.1818182   0.3636364   0.4545455), wk =   0.0721262
        k(   46) = (   0.1818182   0.4545455   0.4545455), wk =   0.0360631
        k(   47) = (   0.2727273   0.2727273   0.2727273), wk =   0.0120210
        k(   48) = (   0.2727273   0.2727273   0.3636364), wk =   0.0360631
        k(   49) = (   0.2727273   0.2727273   0.4545455), wk =   0.0360631
        k(   50) = (   0.2727273   0.3636364   0.3636364), wk =   0.0360631
        k(   51) = (   0.2727273   0.3636364   0.4545455), wk =   0.0721262
        k(   52) = (   0.2727273   0.4545455   0.4545455), wk =   0.0360631
        k(   53) = (   0.3636364   0.3636364   0.3636364), wk =   0.0120210
        k(   54) = (   0.3636364   0.3636364   0.4545455), wk =   0.0360631
        k(   55) = (   0.3636364   0.4545455   0.4545455), wk =   0.0360631
        k(   56) = (   0.4545455   0.4545455   0.4545455), wk =   0.0120210

     Dense  grid:   209233 G-vectors     FFT dimensions: (  75,  75,  75)

     Smooth grid:    31919 G-vectors     FFT dimensions: (  40,  40,  40)

     Estimated max dynamical RAM per process >     117.03 MB

     Estimated total dynamical RAM >     936.25 MB

     Check: negative core charge=   -0.000002

     Initial potential from superposition of free atoms

     starting charge      26.9995, renormalised to      28.0000

     negative rho (up, down):  1.347E-03 0.000E+00
     Starting wfcs are   23 randomized atomic wfcs
     Checking if some PAW data can be deallocated... 

     total cpu time spent up to now is        1.4 secs

     per-process dynamical memory:   142.8 Mb

     Self-consistent Calculation

     iteration #  1     ecut=   124.00 Ry     beta= 0.70
     Davidson diagonalization with overlap
     ethr =  1.00E-02,  avg # of iterations =  2.1

     negative rho (up, down):  7.937E-05 0.000E+00

     total cpu time spent up to now is        2.4 secs

     total energy              =    -434.89047275 Ry
     estimated scf accuracy    <      17.46535633 Ry

     iteration #  2     ecut=   124.00 Ry     beta= 0.70
     Davidson diagonalization with overlap
     ethr =  1.00E-02,  avg # of iterations =  6.0

     negative rho (up, down):  2.353E-05 0.000E+00

     total cpu time spent up to now is        4.0 secs

     total energy              =    -448.51249463 Ry
     estimated scf accuracy    <      66.10195194 Ry

     iteration #  3     ecut=   124.00 Ry     beta= 0.70
     Davidson diagonalization with overlap
     ethr =  1.00E-02,  avg # of iterations =  3.1

     negative rho (up, down):  2.377E-04 0.000E+00

     total cpu time spent up to now is        5.2 secs

     total energy              =    -448.59203340 Ry
     estimated scf accuracy    <      16.77106202 Ry

     iteration #  4     ecut=   124.00 Ry     beta= 0.70
     Davidson diagonalization with overlap
     ethr =  1.00E-02,  avg # of iterations =  2.2

     negative rho (up, down):  2.766E-04 0.000E+00

     total cpu time spent up to now is        6.2 secs

     total energy              =    -449.11252552 Ry
     estimated scf accuracy    <       4.68111793 Ry

     iteration #  5     ecut=   124.00 Ry     beta= 0.70
     Davidson diagonalization with overlap
     ethr =  1.00E-02,  avg # of iterations =  1.0

     negative rho (up, down):  3.285E-04 0.000E+00

     total cpu time spent up to now is        7.0 secs

     total energy              =    -449.11683000 Ry
     estimated scf accuracy    <       4.27451567 Ry

     iteration #  6     ecut=   124.00 Ry     beta= 0.70
     Davidson diagonalization with overlap
     ethr =  1.00E-02,  avg # of iterations =  1.0

     negative rho (up, down):  1.118E-03 0.000E+00

     total cpu time spent up to now is        7.9 secs

     total energy              =    -447.89068457 Ry
     estimated scf accuracy    <       4.50163493 Ry

     iteration #  7     ecut=   124.00 Ry     beta= 0.70
     Davidson diagonalization with overlap
     ethr =  1.00E-02,  avg # of iterations =  3.4

     negative rho (up, down):  1.015E-03 0.000E+00

     total cpu time spent up to now is        9.0 secs

     total energy              =    -448.58840447 Ry
     estimated scf accuracy    <       3.89651472 Ry

     iteration #  8     ecut=   124.00 Ry     beta= 0.70
     Davidson diagonalization with overlap
     ethr =  1.00E-02,  avg # of iterations =  1.0

     negative rho (up, down):  7.976E-04 0.000E+00

     total cpu time spent up to now is        9.9 secs

     total energy              =    -448.43997417 Ry
     estimated scf accuracy    <       1.27715295 Ry

     iteration #  9     ecut=   124.00 Ry     beta= 0.70
     Davidson diagonalization with overlap
     ethr =  4.56E-03,  avg # of iterations =  1.9

     negative rho (up, down):  7.977E-04 0.000E+00

     total cpu time spent up to now is       10.8 secs

     total energy              =    -448.60539805 Ry
     estimated scf accuracy    <       0.26863249 Ry

     iteration # 10     ecut=   124.00 Ry     beta= 0.70
     Davidson diagonalization with overlap
     ethr =  9.59E-04,  avg # of iterations =  1.3

     negative rho (up, down):  8.075E-04 0.000E+00

     total cpu time spent up to now is       11.7 secs

     total energy              =    -448.61289738 Ry
     estimated scf accuracy    <       0.28159432 Ry

     iteration # 11     ecut=   124.00 Ry     beta= 0.70
     Davidson diagonalization with overlap
     ethr =  9.59E-04,  avg # of iterations =  1.0

     negative rho (up, down):  7.617E-04 0.000E+00

     total cpu time spent up to now is       12.5 secs

     total energy              =    -448.67957078 Ry
     estimated scf accuracy    <       0.34549008 Ry

     iteration # 12     ecut=   124.00 Ry     beta= 0.70
     Davidson diagonalization with overlap
     ethr =  9.59E-04,  avg # of iterations =  1.8

     negative rho (up, down):  7.932E-04 0.000E+00

     total cpu time spent up to now is       13.5 secs

     total energy              =    -448.62277485 Ry
     estimated scf accuracy    <       1.28404054 Ry

     iteration # 13     ecut=   124.00 Ry     beta= 0.70
     Davidson diagonalization with overlap
     ethr =  9.59E-04,  avg # of iterations =  1.2

     negative rho (up, down):  9.274E-04 0.000E+00

     total cpu time spent up to now is       14.3 secs

     total energy              =    -448.63537755 Ry
     estimated scf accuracy    <       0.58154385 Ry

     iteration # 14     ecut=   124.00 Ry     beta= 0.70
     Davidson diagonalization with overlap
     ethr =  9.59E-04,  avg # of iterations =  1.0

     negative rho (up, down):  1.025E-03 0.000E+00

     total cpu time spent up to now is       15.2 secs

     total energy              =    -448.61055071 Ry
     estimated scf accuracy    <       0.50368914 Ry

     iteration # 15     ecut=   124.00 Ry     beta= 0.70
     Davidson diagonalization with overlap
     ethr =  9.59E-04,  avg # of iterations =  1.0

     negative rho (up, down):  1.032E-03 0.000E+00

     total cpu time spent up to now is       16.1 secs

     total energy              =    -448.61143942 Ry
     estimated scf accuracy    <       0.31963621 Ry

     iteration # 16     ecut=   124.00 Ry     beta= 0.70
     Davidson diagonalization with overlap
     ethr =  9.59E-04,  avg # of iterations =  1.0

     negative rho (up, down):  1.077E-03 0.000E+00

     total cpu time spent up to now is       17.0 secs

     total energy              =    -448.59313187 Ry
     estimated scf accuracy    <       0.28283031 Ry

     iteration # 17     ecut=   124.00 Ry     beta= 0.70
     Davidson diagonalization with overlap
     ethr =  9.59E-04,  avg # of iterations =  1.0

     negative rho (up, down):  1.074E-03 0.000E+00

     total cpu time spent up to now is       17.9 secs

     total energy              =    -448.60188466 Ry
     estimated scf accuracy    <       0.07727334 Ry

     iteration # 18     ecut=   124.00 Ry     beta= 0.70
     Davidson diagonalization with overlap
     ethr =  2.76E-04,  avg # of iterations =  1.6

     negative rho (up, down):  9.925E-04 0.000E+00

     total cpu time spent up to now is       18.8 secs

     total energy              =    -448.58361171 Ry
     estimated scf accuracy    <       0.14906512 Ry

     iteration # 19     ecut=   124.00 Ry     beta= 0.70
     Davidson diagonalization with overlap
     ethr =  2.76E-04,  avg # of iterations =  1.1

     negative rho (up, down):  9.436E-04 0.000E+00

     total cpu time spent up to now is       19.7 secs

     total energy              =    -448.59412596 Ry
     estimated scf accuracy    <       0.04848603 Ry

     iteration # 20     ecut=   124.00 Ry     beta= 0.70
     Davidson diagonalization with overlap
     ethr =  1.73E-04,  avg # of iterations =  1.1

     negative rho (up, down):  1.023E-03 0.000E+00

     total cpu time spent up to now is       20.5 secs

     total energy              =    -448.57755582 Ry
     estimated scf accuracy    <       0.17402918 Ry

     iteration # 21     ecut=   124.00 Ry     beta= 0.70
     Davidson diagonalization with overlap
     ethr =  1.73E-04,  avg # of iterations =  2.1

     negative rho (up, down):  1.012E-03 0.000E+00

     total cpu time spent up to now is       21.5 secs

     total energy              =    -448.58650556 Ry
     estimated scf accuracy    <       0.00384583 Ry

     iteration # 22     ecut=   124.00 Ry     beta= 0.70
     Davidson diagonalization with overlap
     ethr =  1.37E-05,  avg # of iterations =  4.6

     negative rho (up, down):  1.004E-03 0.000E+00

     total cpu time spent up to now is       22.5 secs

     total energy              =    -448.58691254 Ry
     estimated scf accuracy    <       0.00198474 Ry

     iteration # 23     ecut=   124.00 Ry     beta= 0.70
     Davidson diagonalization with overlap
     ethr =  7.09E-06,  avg # of iterations =  1.5

     negative rho (up, down):  1.006E-03 0.000E+00

     total cpu time spent up to now is       23.4 secs

     total energy              =    -448.58700272 Ry
     estimated scf accuracy    <       0.00176934 Ry

     iteration # 24     ecut=   124.00 Ry     beta= 0.70
     Davidson diagonalization with overlap
     ethr =  6.32E-06,  avg # of iterations =  1.0

     negative rho (up, down):  9.532E-04 0.000E+00

     total cpu time spent up to now is       24.3 secs

     total energy              =    -448.58622430 Ry
     estimated scf accuracy    <       0.00189335 Ry

     iteration # 25     ecut=   124.00 Ry     beta= 0.70
     Davidson diagonalization with overlap
     ethr =  6.32E-06,  avg # of iterations =  2.5

     negative rho (up, down):  9.519E-04 0.000E+00

     total cpu time spent up to now is       25.3 secs

     total energy              =    -448.58664002 Ry
     estimated scf accuracy    <       0.00120785 Ry

     iteration # 26     ecut=   124.00 Ry     beta= 0.70
     Davidson diagonalization with overlap
     ethr =  4.31E-06,  avg # of iterations =  1.0

     negative rho (up, down):  9.350E-04 0.000E+00

     total cpu time spent up to now is       26.2 secs

     total energy              =    -448.58685540 Ry
     estimated scf accuracy    <       0.00115498 Ry

     iteration # 27     ecut=   124.00 Ry     beta= 0.70
     Davidson diagonalization with overlap
     ethr =  4.12E-06,  avg # of iterations =  2.0

     negative rho (up, down):  9.665E-04 0.000E+00

     total cpu time spent up to now is       27.2 secs

     total energy              =    -448.58628946 Ry
     estimated scf accuracy    <       0.00358736 Ry

     iteration # 28     ecut=   124.00 Ry     beta= 0.70
     Davidson diagonalization with overlap
     ethr =  4.12E-06,  avg # of iterations =  2.0

     negative rho (up, down):  9.722E-04 0.000E+00

     total cpu time spent up to now is       28.1 secs

     total energy              =    -448.58652077 Ry
     estimated scf accuracy    <       0.00004729 Ry

     iteration # 29     ecut=   124.00 Ry     beta= 0.70
     Davidson diagonalization with overlap
     ethr =  1.69E-07,  avg # of iterations =  4.7

     negative rho (up, down):  9.640E-04 0.000E+00

     total cpu time spent up to now is       29.3 secs

     total energy              =    -448.58653251 Ry
     estimated scf accuracy    <       0.00024121 Ry

     iteration # 30     ecut=   124.00 Ry     beta= 0.70
     Davidson diagonalization with overlap
     ethr =  1.69E-07,  avg # of iterations =  3.8

     negative rho (up, down):  9.643E-04 0.000E+00

     total cpu time spent up to now is       30.4 secs

     total energy              =    -448.58655217 Ry
     estimated scf accuracy    <       0.00000018 Ry

     iteration # 31     ecut=   124.00 Ry     beta= 0.70
     Davidson diagonalization with overlap
     ethr =  6.52E-10,  avg # of iterations =  5.9

     negative rho (up, down):  9.640E-04 0.000E+00

     total cpu time spent up to now is       31.7 secs

     total energy              =    -448.58655245 Ry
     estimated scf accuracy    <       0.00000124 Ry

     iteration # 32     ecut=   124.00 Ry     beta= 0.70
     Davidson diagonalization with overlap
     ethr =  6.52E-10,  avg # of iterations =  4.0

     negative rho (up, down):  9.638E-04 0.000E+00

     total cpu time spent up to now is       32.8 secs

     total energy              =    -448.58655251 Ry
     estimated scf accuracy    <       0.00000015 Ry

     iteration # 33     ecut=   124.00 Ry     beta= 0.70
     Davidson diagonalization with overlap
     ethr =  5.50E-10,  avg # of iterations =  2.0

     negative rho (up, down):  9.641E-04 0.000E+00

     total cpu time spent up to now is       33.7 secs

     total energy              =    -448.58655246 Ry
     estimated scf accuracy    <       0.00000035 Ry

     iteration # 34     ecut=   124.00 Ry     beta= 0.70
     Davidson diagonalization with overlap
     ethr =  5.50E-10,  avg # of iterations =  2.3

     negative rho (up, down):  9.642E-04 0.000E+00

     total cpu time spent up to now is       34.7 secs

     total energy              =    -448.58655249 Ry
     estimated scf accuracy    <       0.00000002 Ry

     iteration # 35     ecut=   124.00 Ry     beta= 0.70
     Davidson diagonalization with overlap
     ethr =  7.32E-11,  avg # of iterations =  3.8

     negative rho (up, down):  9.641E-04 0.000E+00

     total cpu time spent up to now is       35.7 secs

     total energy              =    -448.58655249 Ry
     estimated scf accuracy    <       0.00000003 Ry

     iteration # 36     ecut=   124.00 Ry     beta= 0.70
     Davidson diagonalization with overlap
     ethr =  7.32E-11,  avg # of iterations =  2.8

     negative rho (up, down):  9.642E-04 0.000E+00

     total cpu time spent up to now is       36.7 secs

     End of self-consistent calculation

          k = 0.0000 0.0000 0.0000 (  3911 PWs)   bands (ev):

   -69.2103 -39.1517 -35.2713 -35.2713 -35.2713 -15.2460 -15.2460 -15.2460
    10.1528  13.8639  13.8639  16.6568  16.6568  16.6568  18.9983  18.9983
    20.9366  20.9366

          k = 0.0000 0.0000 0.0909 (  3947 PWs)   bands (ev):

   -69.2100 -39.1496 -35.2739 -35.2710 -35.2710 -15.2752 -15.2442 -15.2442
    10.3257  13.9470  13.9536  16.6441  16.6441  16.6947  18.8927  19.0380
    20.6858  20.6858

          k = 0.0000 0.0000 0.1818 (  3964 PWs)   bands (ev):

   -69.2093 -39.1439 -35.2806 -35.2699 -35.2699 -15.3532 -15.2395 -15.2395
    10.8272  14.1866  14.1906  16.6148  16.6148  16.8008  18.5875  19.1279
    20.1022  20.1022

          k = 0.0000 0.0000 0.2727 (  3988 PWs)   bands (ev):

   -69.2083 -39.1364 -35.2894 -35.2686 -35.2686 -15.4540 -15.2334 -15.2334
    11.6057  14.4523  14.5738  16.5899  16.5899  16.9516  18.1202  19.1616
    19.4564  19.4564

          k = 0.0000 0.0000 0.3636 (  4008 PWs)   bands (ev):

   -69.2074 -39.1296 -35.2974 -35.2674 -35.2674 -15.5455 -15.2277 -15.2277
    12.5660  14.5652  15.0485  16.5850  16.5850  17.1052  17.5653  18.9275
    18.9275  18.9715

          k = 0.0000 0.0000 0.4545 (  3992 PWs)   bands (ev):

   -69.2069 -39.1255 -35.3021 -35.2666 -35.2666 -15.5993 -15.2243 -15.2243
    13.5347  14.3044  15.4744  16.5939  16.5939  17.0903  17.2053  18.6282
    18.6282  18.6588

          k = 0.0000 0.0909 0.0909 (  3966 PWs)   bands (ev):

   -69.2097 -39.1473 -35.2748 -35.2724 -35.2706 -15.2763 -15.2701 -15.2424
    10.4951  14.0265  14.0436  16.5617  16.6235  16.7909  18.8775  19.0087
    20.4104  20.4353

          k = 0.0000 0.0909 0.1818 (  3978 PWs)   bands (ev):

   -69.2090 -39.1413 -35.2811 -35.2724 -35.2696 -15.3507 -15.2674 -15.2375
    10.9856  14.2440  14.2906  16.4813  16.5732  16.9084  18.6426  19.0872
    19.8667  19.9001

          k = 0.0000 0.0909 0.2727 (  3995 PWs)   bands (ev):

   -69.2080 -39.1334 -35.2900 -35.2716 -35.2682 -15.4505 -15.2605 -15.2310
    11.7434  14.5128  14.6445  16.4377  16.5167  16.9935  18.2447  19.0577
    19.3653  19.4002

          k = 0.0000 0.0909 0.3636 (  3991 PWs)   bands (ev):

   -69.2071 -39.1261 -35.2982 -35.2709 -35.2670 -15.5410 -15.2540 -15.2251
    12.6707  14.6170  15.0808  16.4435  16.4656  16.9997  17.7899  18.6460
    19.0665  19.2133

          k = 0.0000 0.0909 0.4545 (  3999 PWs)   bands (ev):

   -69.2066 -39.1218 -35.3030 -35.2704 -35.2663 -15.5943 -15.2502 -15.2216
    13.5943  14.3519  15.4692  16.3968  16.4805  16.9451  17.4633  18.3527
    18.9324  19.0197

          k = 0.0000 0.1818 0.1818 (  3972 PWs)   bands (ev):

   -69.2083 -39.1343 -35.2840 -35.2772 -35.2686 -15.3518 -15.3342 -15.2320
    11.4401  14.3900  14.5687  16.3070  16.4778  16.9857  18.6949  19.0459
    19.3497  19.5759

          k = 0.0000 0.1818 0.2727 (  4003 PWs)   bands (ev):

   -69.2073 -39.1252 -35.2920 -35.2794 -35.2673 -15.4412 -15.3324 -15.2248
    12.1275  14.5565  14.9462  16.1858  16.3868  16.9101  18.5209  18.8014
    19.2048  19.3971

          k = 0.0000 0.1818 0.3636 (  3997 PWs)   bands (ev):

   -69.2064 -39.1168 -35.3004 -35.2802 -35.2661 -15.5290 -15.3241 -15.2182
    12.9354  14.5943  15.3322  16.1499  16.3572  16.7002  18.2182  18.4617
    19.3303  19.4171

          k = 0.0000 0.1818 0.4545 (  3990 PWs)   bands (ev):

   -69.2059 -39.1118 -35.3055 -35.2806 -35.2654 -15.5808 -15.3190 -15.2143
    13.6841  14.3630  15.6125  16.2009  16.3901  16.4819  18.0481  18.2166
    19.3519  19.5140

          k = 0.0000 0.2727 0.2727 (  4000 PWs)   bands (ev):

   -69.2063 -39.1144 -35.2962 -35.2880 -35.2661 -15.4376 -15.4171 -15.2167
    12.6688  14.5348  15.3963  15.9775  16.3399  16.6425  18.5789  18.7502
    19.1053  19.5704

          k = 0.0000 0.2727 0.3636 (  3993 PWs)   bands (ev):

   -69.2054 -39.1045 -35.3035 -35.2923 -35.2649 -15.5134 -15.4148 -15.2091
    13.2266  14.4166  15.8407  15.8678  16.3180  16.4951  18.3958  18.7292
    19.2749  19.8465

          k = 0.0000 0.2727 0.4545 (  3996 PWs)   bands (ev):

   -69.2049 -39.0986 -35.3088 -35.2939 -35.2643 -15.5632 -15.4082 -15.2047
    13.6460  14.2282  15.8808  16.0551  16.0845  16.8466  18.1510  18.6845
    19.4869  20.0942

          k = 0.0000 0.3636 0.3636 (  4002 PWs)   bands (ev):

   -69.2046 -39.0932 -35.3073 -35.3025 -35.2639 -15.5040 -15.4922 -15.2008
    13.4198  14.2078  15.6811  15.9708  16.4456  16.8939  18.5222  19.0881
    19.1103  20.2512

          k = 0.0000 0.3636 0.4545 (  3999 PWs)   bands (ev):

   -69.2041 -39.0865 -35.3119 -35.3062 -35.2632 -15.5469 -15.4893 -15.1958
    13.5039  14.0682  15.6294  15.7309  16.8140  17.5391  18.2827  19.1483
    19.3230  20.5545

          k = 0.0000 0.4545 0.4545 (  3998 PWs)   bands (ev):

   -69.2035 -39.0793 -35.3139 -35.3133 -35.2626 -15.5379 -15.5363 -15.1906
    13.3946  13.9723  15.5085  15.5425  17.5106  17.9878  18.6670  18.8520
    19.4119  20.8262

          k = 0.0909 0.0909 0.0909 (  3959 PWs)   bands (ev):

   -69.2095 -39.1450 -35.2744 -35.2744 -35.2711 -15.2768 -15.2683 -15.2683
    10.6615  14.1185  14.1185  16.5391  16.5391  16.8681  18.9295  18.9295
    19.9929  20.6652

          k = 0.0909 0.0909 0.1818 (  3966 PWs)   bands (ev):

   -69.2087 -39.1386 -35.2813 -35.2733 -35.2710 -15.3482 -15.2670 -15.2635
    11.1426  14.3361  14.3554  16.4287  16.4796  16.9503  18.7012  19.0493
    19.5188  20.0789

          k = 0.0909 0.0909 0.2727 (  3992 PWs)   bands (ev):

   -69.2077 -39.1303 -35.2905 -35.2720 -35.2707 -15.4470 -15.2590 -15.2572
    11.8826  14.6168  14.6736  16.3700  16.3987  16.9454  18.3564  19.0006
    19.3237  19.4428

          k = 0.0909 0.0909 0.3636 (  3994 PWs)   bands (ev):

   -69.2069 -39.1227 -35.2989 -35.2707 -35.2704 -15.5367 -15.2515 -15.2514
    12.7810  14.7008  15.0813  16.2989  16.4005  16.8595  17.9712  18.7163
    18.9369  19.4203

          k = 0.0909 0.0909 0.4545 (  4007 PWs)   bands (ev):

   -69.2063 -39.1181 -35.3038 -35.2702 -35.2699 -15.5895 -15.2480 -15.2470
    13.6656  14.4197  15.4383  16.1745  16.5156  16.7699  17.6949  18.4315
    18.6598  19.5237

          k = 0.0909 0.1818 0.1818 (  3984 PWs)   bands (ev):

   -69.2080 -39.1314 -35.2836 -35.2780 -35.2712 -15.3485 -15.3323 -15.2593
    11.5926  14.4938  14.6188  16.2700  16.3702  16.9131  18.7644  19.0172
    19.2359  19.7949

          k = 0.0909 0.1818 0.2727 (  3994 PWs)   bands (ev):

   -69.2070 -39.1221 -35.2920 -35.2795 -35.2705 -15.4379 -15.3300 -15.2517
    12.2705  14.6757  14.9647  16.1421  16.2715  16.7315  18.6110  18.9229
    19.2408  19.4560

          k = 0.0909 0.1818 0.3636 (  4001 PWs)   bands (ev):

   -69.2061 -39.1134 -35.3007 -35.2800 -35.2697 -15.5252 -15.3216 -15.2446
    13.0616  14.7215  15.2859  16.0686  16.2634  16.5479  18.3725  18.5771
    19.1013  19.7200

          k = 0.0909 0.1818 0.4545 (  3993 PWs)   bands (ev):

   -69.2056 -39.1083 -35.3060 -35.2802 -35.2692 -15.5767 -15.3165 -15.2403
    13.7875  14.4740  15.5175  16.0018  16.3647  16.4909  18.1992  18.2872
    18.8992  20.1084

          k = 0.0909 0.2727 0.2727 (  3989 PWs)   bands (ev):

   -69.2061 -39.1113 -35.2957 -35.2883 -35.2695 -15.4338 -15.4152 -15.2433
    12.8158  14.6587  15.4058  15.9390  16.2101  16.4306  18.6963  18.9064
    19.0874  19.7048

          k = 0.0909 0.2727 0.3636 (  3985 PWs)   bands (ev):

   -69.2052 -39.1013 -35.3033 -35.2922 -35.2686 -15.5102 -15.4124 -15.2356
    13.3704  14.5419  15.7742  15.8302  16.2030  16.3600  18.4781  18.8194
    19.1583  20.1173

          k = 0.0909 0.2727 0.4545 (  4006 PWs)   bands (ev):

   -69.2047 -39.0954 -35.3089 -35.2935 -35.2680 -15.5599 -15.4059 -15.2309
    13.7756  14.3545  15.7972  15.8477  16.1550  16.7541  18.1884  18.7888
    19.0873  20.6003

          k = 0.0909 0.3636 0.3636 (  3992 PWs)   bands (ev):

   -69.2043 -39.0901 -35.3068 -35.3024 -35.2675 -15.5010 -15.4902 -15.2272
    13.5656  14.3325  15.6507  15.8817  16.4032  16.7209  18.4860  18.9868
    19.1887  20.5637

          k = 0.0909 0.3636 0.4545 (  4002 PWs)   bands (ev):

   -69.2038 -39.0835 -35.3116 -35.3057 -35.2669 -15.5444 -15.4872 -15.2223
    13.6402  14.1966  15.5970  15.6797  16.7391  17.3611  18.2404  18.9495
    19.2816  20.7958

          k = 0.0909 0.4545 0.4545 (  3993 PWs)   bands (ev):

   -69.2033 -39.0764 -35.3134 -35.3128 -35.2662 -15.5359 -15.5344 -15.2171
    13.5314  14.1009  15.4861  15.5157  17.4523  17.8446  18.4160  18.5135
    19.4900  21.0194

          k = 0.1818 0.1818 0.1818 (  3989 PWs)   bands (ev):

   -69.2072 -39.1238 -35.2825 -35.2825 -35.2757 -15.3446 -15.3274 -15.3274
    12.0266  14.7610  14.7610  16.1713  16.1713  16.6504  18.9329  18.9329
    19.2930  20.0375

          k = 0.1818 0.1818 0.2727 (  3992 PWs)   bands (ev):

   -69.2063 -39.1137 -35.2922 -35.2810 -35.2777 -15.4290 -15.3257 -15.3208
    12.6697  14.9702  15.0333  16.0341  16.0388  16.3368  18.8050  19.0078
    19.4274  19.5989

          k = 0.1818 0.1818 0.3636 (  3994 PWs)   bands (ev):

   -69.2054 -39.1044 -35.3017 -35.2796 -35.2790 -15.5149 -15.3149 -15.3148
    13.3929  15.0074  15.2036  15.8991  16.0682  16.2650  18.6704  18.7433
    18.9524  20.1601

          k = 0.1818 0.1818 0.4545 (  3986 PWs)   bands (ev):

   -69.2049 -39.0989 -35.3073 -35.2797 -35.2788 -15.5656 -15.3112 -15.3084
    14.0172  14.6821  15.3921  15.7788  16.1845  16.4450  18.3322  18.5953
    18.6807  20.5299

          k = 0.1818 0.2727 0.2727 (  3994 PWs)   bands (ev):

   -69.2053 -39.1027 -35.2945 -35.2893 -35.2787 -15.4236 -15.4100 -15.3143
    13.2274  14.9964  15.4273  15.8397  15.9189  15.9976  18.8252  19.0096
    19.3285  20.0778

          k = 0.1818 0.2727 0.3636 (  3988 PWs)   bands (ev):

   -69.2045 -39.0926 -35.3031 -35.2918 -35.2783 -15.5016 -15.4059 -15.3060
    13.7701  14.8707  15.5750  15.7253  15.9737  16.0870  18.5906  18.8383
    19.2207  20.3803

          k = 0.1818 0.2727 0.4545 (  3991 PWs)   bands (ev):

   -69.2039 -39.0866 -35.3091 -35.2925 -35.2779 -15.5511 -15.3998 -15.3010
    14.1253  14.6660  15.5488  15.6706  16.0602  16.5356  18.2319  18.6757
    19.1298  20.6015

          k = 0.1818 0.3636 0.3636 (  3990 PWs)   bands (ev):

   -69.2036 -39.0817 -35.3055 -35.3023 -35.2773 -15.4928 -15.4851 -15.2978
    13.9820  14.6576  15.5747  15.6896  16.2719  16.2956  18.4622  18.6970
    19.4851  20.5436

          k = 0.1818 0.3636 0.4545 (  3993 PWs)   bands (ev):

   -69.2031 -39.0753 -35.3108 -35.3045 -35.2767 -15.5378 -15.4816 -15.2929
    14.0272  14.5323  15.5200  15.5675  16.4915  16.9250  18.1794  18.5402
    19.5617  20.7854

          k = 0.1818 0.4545 0.4545 (  4002 PWs)   bands (ev):

   -69.2026 -39.0685 -35.3120 -35.3116 -35.2760 -15.5303 -15.5293 -15.2880
    13.9234  14.4435  15.4329  15.4545  17.1746  17.2812  18.0690  18.2503
    19.7506  21.0766

          k = 0.2727 0.2727 0.2727 (  3998 PWs)   bands (ev):

   -69.2044 -39.0915 -35.2928 -35.2928 -35.2886 -15.4132 -15.4033 -15.4033
    13.7990  15.4441  15.4441  15.5182  15.7193  15.7193  18.8337  18.8337
    19.7984  19.7984

          k = 0.2727 0.2727 0.3636 (  3992 PWs)   bands (ev):

   -69.2035 -39.0812 -35.3030 -35.2913 -35.2908 -15.4904 -15.3973 -15.3971
    14.2965  15.1356  15.4426  15.6207  15.7209  15.9354  18.5785  18.6239
    19.6455  20.2948

          k = 0.2727 0.2727 0.4545 (  3990 PWs)   bands (ev):

   -69.2030 -39.0751 -35.3095 -35.2915 -35.2905 -15.5396 -15.3934 -15.3900
    14.5098  14.9115  15.4302  15.5701  15.9004  16.3710  18.1751  18.4970
    19.5915  20.6353

          k = 0.2727 0.3636 0.3636 (  3988 PWs)   bands (ev):

   -69.2027 -39.0707 -35.3037 -35.3021 -35.2902 -15.4821 -15.4783 -15.3891
    14.5958  15.0027  15.4918  15.5872  15.8170  16.0595  18.4143  18.4173
    19.9497  20.4947

          k = 0.2727 0.3636 0.4545 (  3992 PWs)   bands (ev):

   -69.2021 -39.0645 -35.3099 -35.3030 -35.2896 -15.5291 -15.4742 -15.3843
    14.5794  14.9171  15.4521  15.5076  16.1032  16.4659  18.0772  18.3313
    20.0121  20.8207

          k = 0.2727 0.4545 0.4545 (  4000 PWs)   bands (ev):

   -69.2016 -39.0581 -35.3102 -35.3100 -35.2888 -15.5231 -15.5225 -15.3799
    14.5067  14.8769  15.3854  15.4135  16.6254  16.6526  17.9060  18.1706
    20.1898  21.1137

          k = 0.3636 0.3636 0.3636 (  3999 PWs)   bands (ev):

   -69.2018 -39.0606 -35.3021 -35.3021 -35.3018 -15.4723 -15.4721 -15.4721
    14.9948  15.3300  15.4470  15.4470  15.8146  15.8146  18.2411  18.2411
    20.5003  20.5003

          k = 0.3636 0.3636 0.4545 (  4008 PWs)   bands (ev):

   -69.2013 -39.0545 -35.3090 -35.3018 -35.3012 -15.5211 -15.4684 -15.4664
    14.9932  15.1653  15.4767  15.6074  15.7984  16.1605  17.9824  18.1639
    20.5130  20.9127

          k = 0.3636 0.4545 0.4545 (  3994 PWs)   bands (ev):

   -69.2008 -39.0486 -35.3085 -35.3085 -35.3006 -15.5164 -15.5163 -15.4633
    15.1009  15.2496  15.3888  15.4963  16.0924  16.1437  17.8651  18.0301
    20.7354  21.1431

          k = 0.4545 0.4545 0.4545 (  3972 PWs)   bands (ev):

   -69.2003 -39.0430 -35.3076 -35.3075 -35.3075 -15.5126 -15.5126 -15.5122
    15.3317  15.4752  15.4752  15.7776  15.7776  15.8004  17.8552  17.8552
    21.1598  21.1598

     the Fermi energy is    17.5936 ev

!    total energy              =    -448.58655249 Ry
     estimated scf accuracy    <          4.6E-09 Ry
     smearing contrib. (-TS)   =       0.00005040 Ry
     internal energy E=F+TS    =    -448.58660289 Ry

     The total energy is F=E-TS. E is the sum of the following terms:
     one-electron contribution =    -151.34258880 Ry
     hartree contribution      =      91.61754585 Ry
     xc contribution           =     -52.88701341 Ry
     ewald contribution        =    -259.82070277 Ry
     one-center paw contrib.   =     -76.15384375 Ry

     convergence has been achieved in  36 iterations

     negative rho (up, down):  9.642E-04 0.000E+00

     Forces acting on atoms (cartesian axes, Ry/au):

     atom    1 type  1   force =     0.00000000    0.00000000    0.00000000
     atom    2 type  2   force =     0.00000000    0.00000000    0.00000000

     Total force =     0.000000     Total SCF correction =     0.000000


     Computing stress (Cartesian axis) and pressure


     negative rho (up, down):  9.642E-04 0.000E+00
          total   stress  (Ry/bohr**3)                   (kbar)     P=       31.33
   0.00021296   0.00000000   0.00000000           31.33        0.00        0.00
   0.00000000   0.00021296   0.00000000            0.00       31.33        0.00
   0.00000000   0.00000000   0.00021296            0.00        0.00       31.33


     BFGS Geometry Optimization
     Energy error            =      3.6E-03 Ry
     Gradient error          =      0.0E+00 Ry/Bohr
     Cell gradient error     =      7.8E+01 kbar

     number of scf cycles    =   1
     number of bfgs steps    =   0

     enthalpy           new  =    -448.6414337133 Ry

     new trust radius        =       0.0349033732 bohr
     new conv_thr            =       0.0000000100 Ry

     new unit-cell volume =    178.20231 a.u.^3 (    26.40686 Ang^3 )
     density =      6.52171 g/cm^3

CELL_PARAMETERS (alat=  5.55330037)
   1.013335542   0.000000000   0.000000000
   0.000000000   1.013335542   0.000000000
   0.000000000   0.000000000   1.013335542

ATOMIC_POSITIONS (crystal)
Fe               0.5000000000        0.5000000000        0.5000000000
Ti               0.0000000000        0.0000000000        0.0000000000



     Writing config-only to output data dir ./TiFe.save/ :
     XML data file
     NEW-OLD atomic charge density approx. for the potential
     New effective cutoffs (rho, wfc): 1690.48  120.75

     Check: negative core charge=   -0.000001

     negative rho (up, down):  1.006E-03 0.000E+00

     total cpu time spent up to now is       38.6 secs

     per-process dynamical memory:   153.1 Mb

     Self-consistent Calculation

     iteration #  1     ecut=   124.00 Ry     beta= 0.70
     Davidson diagonalization with overlap
     ethr =  1.00E-06,  avg # of iterations =  7.8

     negative rho (up, down):  9.815E-04 0.000E+00

     total cpu time spent up to now is       40.4 secs

     total energy              =    -448.58505626 Ry
     estimated scf accuracy    <       0.00084845 Ry

     iteration #  2     ecut=   124.00 Ry     beta= 0.70
     Davidson diagonalization with overlap
     ethr =  3.03E-06,  avg # of iterations =  5.2

     negative rho (up, down):  9.655E-04 0.000E+00

     total cpu time spent up to now is       41.6 secs

     total energy              =    -448.58136341 Ry
     estimated scf accuracy    <       0.09186044 Ry

     iteration #  3     ecut=   124.00 Ry     beta= 0.70
     Davidson diagonalization with overlap
     ethr =  3.03E-06,  avg # of iterations =  4.9

     negative rho (up, down):  9.718E-04 0.000E+00

     total cpu time spent up to now is       42.8 secs

     WARNING: integrated charge=    28.00041709, expected=    28.00000000

     total energy              =    -448.58454081 Ry
     estimated scf accuracy    <       0.00023910 Ry

     iteration #  4     ecut=   124.00 Ry     beta= 0.70
     Davidson diagonalization with overlap
     ethr =  8.54E-07,  avg # of iterations =  2.1

     negative rho (up, down):  9.720E-04 0.000E+00

     total cpu time spent up to now is       43.8 secs

     WARNING: integrated charge=    28.00210831, expected=    28.00000000

     total energy              =    -448.58293339 Ry
     estimated scf accuracy    <       0.00000770 Ry

     iteration #  5     ecut=   124.00 Ry     beta= 0.70
     Davidson diagonalization with overlap
     ethr =  2.75E-08,  avg # of iterations =  5.4

     negative rho (up, down):  9.697E-04 0.000E+00

     total cpu time spent up to now is       45.1 secs

     WARNING: integrated charge=    28.00238467, expected=    28.00000000

     total energy              =    -448.58267273 Ry
     estimated scf accuracy    <       0.00000228 Ry

     iteration #  6     ecut=   124.00 Ry     beta= 0.70
     Davidson diagonalization with overlap
     ethr =  8.15E-09,  avg # of iterations =  3.8

     negative rho (up, down):  9.698E-04 0.000E+00

     total cpu time spent up to now is       46.2 secs

     WARNING: integrated charge=    28.00263687, expected=    28.00000000

     total energy              =    -448.58297652 Ry
     estimated scf accuracy    <       0.00000115 Ry

     iteration #  7     ecut=   124.00 Ry     beta= 0.70
     Davidson diagonalization with overlap
     ethr =  4.11E-09,  avg # of iterations =  1.5

     negative rho (up, down):  9.699E-04 0.000E+00

     total cpu time spent up to now is       47.1 secs

     WARNING: integrated charge=    28.00270770, expected=    28.00000000

     total energy              =    -448.58288289 Ry
     estimated scf accuracy    <       0.00000012 Ry

     iteration #  8     ecut=   124.00 Ry     beta= 0.70
     Davidson diagonalization with overlap
     ethr =  4.15E-10,  avg # of iterations =  4.2

     negative rho (up, down):  9.700E-04 0.000E+00

     total cpu time spent up to now is       48.2 secs

     End of self-consistent calculation

          k = 0.0000 0.0000 0.0000 (  3911 PWs)   bands (ev):

   -69.9818 -40.0278 -36.0414 -36.0414 -36.0414 -16.1327 -16.1327 -16.1327
     9.4812  13.2718  13.2718  15.9075  15.9075  15.9075  18.1392  18.1392
    19.9747  19.9747

          k = 0.0000 0.0000 0.0897 (  3947 PWs)   bands (ev):

   -69.9816 -40.0259 -36.0437 -36.0411 -36.0411 -16.1581 -16.1312 -16.1312
     9.6479  13.3513  13.3540  15.8952  15.8952  15.9434  18.0407  18.1759
    19.7387  19.7387

          k = 0.0000 0.0000 0.1794 (  3964 PWs)   bands (ev):

   -69.9810 -40.0208 -36.0498 -36.0403 -36.0403 -16.2257 -16.1270 -16.1270
    10.1325  13.5655  13.5840  15.8667  15.8667  16.0440  17.7555  18.2571
    19.1881  19.1881

          k = 0.0000 0.0000 0.2691 (  3988 PWs)   bands (ev):

   -69.9802 -40.0142 -36.0577 -36.0392 -36.0392 -16.3133 -16.1214 -16.1214
    10.8879  13.7993  13.9497  15.8416  15.8416  16.1867  17.3181  18.2791
    18.5777  18.5777

          k = 0.0000 0.0000 0.3589 (  4008 PWs)   bands (ev):

   -69.9795 -40.0080 -36.0649 -36.0381 -36.0381 -16.3929 -16.1163 -16.1163
    11.8266  13.8737  14.4014  15.8349  15.8349  16.3319  16.7975  18.0782
    18.0782  18.0812

          k = 0.0000 0.0000 0.4486 (  3992 PWs)   bands (ev):

   -69.9790 -40.0044 -36.0692 -36.0375 -36.0375 -16.4398 -16.1133 -16.1133
    12.7869  13.5759  14.8046  15.8414  15.8414  16.3521  16.4264  17.7732
    17.7961  17.7961

          k = 0.0000 0.0897 0.0897 (  3966 PWs)   bands (ev):

   -69.9814 -40.0239 -36.0444 -36.0426 -36.0408 -16.1589 -16.1538 -16.1295
     9.8115  13.4254  13.4384  15.8180  15.8754  16.0333  18.0263  18.1484
    19.4798  19.5022

          k = 0.0000 0.0897 0.1794 (  3978 PWs)   bands (ev):

   -69.9808 -40.0186 -36.0501 -36.0425 -36.0400 -16.2236 -16.1512 -16.1252
    10.2861  13.6282  13.6687  15.7422  15.8269  16.1436  17.8068  18.2194
    18.9645  18.9986

          k = 0.0000 0.0897 0.2691 (  3995 PWs)   bands (ev):

   -69.9800 -40.0116 -36.0581 -36.0418 -36.0389 -16.3103 -16.1451 -16.1194
    11.0229  13.8623  14.0095  15.7001  15.7719  16.2237  17.4345  18.1835
    18.4884  18.5262

          k = 0.0000 0.0897 0.3589 (  3991 PWs)   bands (ev):

   -69.9793 -40.0052 -36.0655 -36.0411 -36.0379 -16.3891 -16.1393 -16.1141
    11.9317  13.9267  14.4277  15.7035  15.7224  16.2308  17.0071  17.7931
    18.2098  18.3288

          k = 0.0000 0.0897 0.4486 (  3999 PWs)   bands (ev):

   -69.9788 -40.0013 -36.0698 -36.0407 -36.0373 -16.4356 -16.1359 -16.1110
    12.8502  13.6264  14.7971  15.6583  15.7358  16.1819  16.6976  17.5099
    18.0816  18.1385

          k = 0.0000 0.1794 0.1794 (  3972 PWs)   bands (ev):

   -69.9802 -40.0126 -36.0522 -36.0471 -36.0392 -16.2241 -16.2098 -16.1203
    10.7283  13.7660  13.9265  15.5783  15.7348  16.2148  17.8545  18.1813
    18.4730  18.6936

          k = 0.0000 0.1794 0.2691 (  4003 PWs)   bands (ev):

   -69.9794 -40.0047 -36.0594 -36.0488 -36.0381 -16.3024 -16.2079 -16.1140
    11.4018  13.9142  14.2797  15.4638  15.6451  16.1434  17.6935  17.9452
    18.3309  18.5240

          k = 0.0000 0.1794 0.3589 (  3997 PWs)   bands (ev):

   -69.9787 -39.9975 -36.0670 -36.0492 -36.0371 -16.3790 -16.2006 -16.1082
    12.2031  13.9229  14.6461  15.4289  15.6123  15.9471  17.4088  17.6188
    18.4402  18.5406

          k = 0.0000 0.1794 0.4486 (  3990 PWs)   bands (ev):

   -69.9782 -39.9932 -36.0716 -36.0494 -36.0365 -16.4242 -16.1962 -16.1047
    12.9616  13.6591  14.9172  15.4746  15.6364  15.7441  17.2457  17.3836
    18.4505  18.6300

          k = 0.0000 0.2691 0.2691 (  4000 PWs)   bands (ev):

   -69.9786 -39.9957 -36.0625 -36.0564 -36.0371 -16.2990 -16.2823 -16.1069
    11.9442  13.8882  14.6998  15.2675  15.5920  15.8917  17.7322  17.9115
    18.2320  18.6862

          k = 0.0000 0.2691 0.3589 (  3993 PWs)   bands (ev):

   -69.9779 -39.9873 -36.0691 -36.0596 -36.0361 -16.3658 -16.2800 -16.1003
    12.5186  13.7593  15.1174  15.1635  15.5866  15.7255  17.5547  17.8892
    18.3873  18.9451

          k = 0.0000 0.2691 0.4486 (  3996 PWs)   bands (ev):

   -69.9775 -39.9824 -36.0739 -36.0607 -36.0356 -16.4094 -16.2744 -16.0964
    12.9678  13.5523  15.1744  15.3399  15.3461  16.0478  17.3162  17.8499
    18.5762  19.1775

          k = 0.0000 0.3589 0.3589 (  4002 PWs)   bands (ev):

   -69.9772 -39.9780 -36.0719 -36.0683 -36.0352 -16.3578 -16.3481 -16.0931
    12.7504  13.5540  14.9871  15.2593  15.6877  16.0880  17.6672  18.2253
    18.2297  19.3263

          k = 0.0000 0.3589 0.4486 (  3999 PWs)   bands (ev):

   -69.9767 -39.9725 -36.0761 -36.0710 -36.0347 -16.3957 -16.3455 -16.0888
    12.8651  13.4100  14.9377  15.0334  16.0330  16.7012  17.4339  18.2792
    18.4234  19.6116

          k = 0.0000 0.4486 0.4486 (  3998 PWs)   bands (ev):

   -69.9763 -39.9666 -36.0775 -36.0770 -36.0342 -16.3882 -16.3868 -16.0843
    12.7756  13.3229  14.8235  14.8555  16.7035  17.1436  17.7828  17.9573
    18.5325  19.8675

          k = 0.0897 0.0897 0.0897 (  3959 PWs)   bands (ev):

   -69.9811 -40.0218 -36.0440 -36.0440 -36.0416 -16.1591 -16.1522 -16.1522
     9.9723  13.5100  13.5100  15.7966  15.7966  16.1050  18.0746  18.0746
    19.0854  19.7190

          k = 0.0897 0.0897 0.1794 (  3966 PWs)   bands (ev):

   -69.9805 -40.0163 -36.0501 -36.0432 -36.0415 -16.2214 -16.1508 -16.1479
    10.4384  13.7180  13.7260  15.6923  15.7397  16.1812  17.8614  18.1840
    18.6373  19.1654

          k = 0.0897 0.0897 0.2691 (  3992 PWs)   bands (ev):

   -69.9798 -40.0090 -36.0584 -36.0420 -36.0412 -16.3073 -16.1437 -16.1422
    11.1589  13.9567  14.0401  15.6355  15.6622  16.1766  17.5390  18.1317
    18.4489  18.5636

          k = 0.0897 0.0897 0.3589 (  3994 PWs)   bands (ev):

   -69.9790 -40.0023 -36.0659 -36.0410 -36.0408 -16.3855 -16.1372 -16.1370
    12.0413  14.0057  14.4283  15.5670  15.6617  16.0977  17.1776  17.8527
    18.0848  18.5328

          k = 0.0897 0.0897 0.4486 (  4007 PWs)   bands (ev):

   -69.9786 -39.9983 -36.0704 -36.0406 -36.0403 -16.4315 -16.1340 -16.1333
    12.9233  13.6940  14.7679  15.4490  15.7667  16.0151  16.9169  17.5728
    17.8231  18.6260

          k = 0.0897 0.1794 0.1794 (  3984 PWs)   bands (ev):

   -69.9799 -40.0101 -36.0518 -36.0476 -36.0416 -16.2213 -16.2081 -16.1441
    10.8762  13.8628  13.9744  15.5431  15.6351  16.1445  17.9194  18.1545
    18.3675  18.8973

          k = 0.0897 0.1794 0.2691 (  3994 PWs)   bands (ev):

   -69.9792 -40.0021 -36.0593 -36.0488 -36.0409 -16.2995 -16.2057 -16.1374
    11.5405  14.0269  14.2970  15.4219  15.5385  15.9740  17.7768  18.0587
    18.3674  18.5768

          k = 0.0897 0.1794 0.3589 (  4001 PWs)   bands (ev):

   -69.9784 -39.9947 -36.0672 -36.0490 -36.0402 -16.3757 -16.1984 -16.1312
    12.3259  14.0424  14.6039  15.3501  15.5269  15.8025  17.5554  17.7252
    18.2304  18.8197

          k = 0.0897 0.1794 0.4486 (  3993 PWs)   bands (ev):

   -69.9780 -39.9903 -36.0719 -36.0491 -36.0397 -16.4207 -16.1940 -16.1274
    13.0621  13.7647  14.8319  15.2813  15.6255  15.7404  17.3857  17.4512
    18.0367  19.1819

          k = 0.0897 0.2691 0.2691 (  3989 PWs)   bands (ev):

   -69.9784 -39.9930 -36.0621 -36.0566 -36.0400 -16.2958 -16.2806 -16.1301
    12.0856  14.0054  14.7091  15.2303  15.4725  15.6906  17.8430  18.0605
    18.2143  18.8095

          k = 0.0897 0.2691 0.3589 (  3985 PWs)   bands (ev):

   -69.9777 -39.9847 -36.0690 -36.0595 -36.0392 -16.3630 -16.2779 -16.1234
    12.6566  13.8783  15.0597  15.1235  15.4741  15.6020  17.6322  17.9742
    18.2804  19.1964

          k = 0.0897 0.2691 0.4486 (  4006 PWs)   bands (ev):

   -69.9772 -39.9797 -36.0739 -36.0603 -36.0387 -16.4066 -16.2724 -16.1193
    13.0926  13.6729  15.0953  15.1359  15.4157  15.9646  17.3506  17.9486
    18.2080  19.6542

          k = 0.0897 0.3589 0.3589 (  3992 PWs)   bands (ev):

   -69.9770 -39.9754 -36.0715 -36.0683 -36.0383 -16.3551 -16.3463 -16.1162
    12.8907  13.6721  14.9575  15.1741  15.6467  15.9257  17.6372  18.1076
    18.3258  19.6180

          k = 0.0897 0.3589 0.4486 (  4002 PWs)   bands (ev):

   -69.9765 -39.9699 -36.0758 -36.0707 -36.0378 -16.3935 -16.3436 -16.1119
    12.9965  13.5321  14.9060  14.9839  15.9593  16.5329  17.3971  18.0691
    18.4126  19.8425

          k = 0.0897 0.4486 0.4486 (  3993 PWs)   bands (ev):

   -69.9761 -39.9641 -36.0771 -36.0766 -36.0373 -16.3863 -16.3851 -16.1074
    12.9072  13.4448  14.8013  14.8290  16.6449  16.9983  17.5587  17.6420
    18.6074  20.0559

          k = 0.1794 0.1794 0.1794 (  3989 PWs)   bands (ev):

   -69.9794 -40.0036 -36.0509 -36.0509 -36.0459 -16.2178 -16.2036 -16.2036
    11.2986  14.1105  14.1105  15.4487  15.4487  15.8948  18.0758  18.0758
    18.4183  19.1260

          k = 0.1794 0.1794 0.2691 (  3992 PWs)   bands (ev):

   -69.9786 -39.9951 -36.0594 -36.0497 -36.0474 -16.2919 -16.2020 -16.1977
    11.9300  14.3107  14.3550  15.3177  15.3214  15.5996  17.9566  18.1374
    18.5491  18.7052

          k = 0.1794 0.1794 0.3589 (  3994 PWs)   bands (ev):

   -69.9779 -39.9872 -36.0678 -36.0486 -36.0482 -16.3670 -16.1928 -16.1923
    12.6523  14.3061  14.5346  15.1860  15.3450  15.5329  17.8318  17.8755
    18.0995  19.2340

          k = 0.1794 0.1794 0.4486 (  3986 PWs)   bands (ev):

   -69.9774 -39.9825 -36.0728 -36.0486 -36.0479 -16.4113 -16.1891 -16.1872
    13.2925  13.9684  14.7182  15.0666  15.4503  15.6938  17.4791  17.7646
    17.8403  19.5915

          k = 0.1794 0.2691 0.2691 (  3994 PWs)   bands (ev):

   -69.9778 -39.9859 -36.0611 -36.0573 -36.0480 -16.2871 -16.2759 -16.1920
    12.4827  14.3250  14.7306  15.1338  15.2047  15.2772  17.9666  18.1389
    18.4600  19.1551

          k = 0.1794 0.2691 0.3589 (  3988 PWs)   bands (ev):

   -69.9771 -39.9774 -36.0687 -36.0590 -36.0475 -16.3556 -16.2721 -16.1848
    13.0411  14.1907  14.8765  15.0213  15.2443  15.3565  17.7386  17.9741
    18.3586  19.4530

          k = 0.1794 0.2691 0.4486 (  3991 PWs)   bands (ev):

   -69.9767 -39.9724 -36.0740 -36.0594 -36.0471 -16.3990 -16.2669 -16.1804
    13.4303  13.9722  14.8610  14.9631  15.3187  15.7670  17.3887  17.8234
    18.2737  19.6599

          k = 0.1794 0.3589 0.3589 (  3990 PWs)   bands (ev):

   -69.9764 -39.9684 -36.0704 -36.0680 -36.0467 -16.3480 -16.3416 -16.1777
    13.2918  13.9812  14.8833  14.9888  15.5207  15.5288  17.6177  17.8336
    18.6076  19.6082

          k = 0.1794 0.3589 0.4486 (  3993 PWs)   bands (ev):

   -69.9760 -39.9630 -36.0752 -36.0697 -36.0462 -16.3876 -16.3385 -16.1734
    13.3699  13.8524  14.8304  14.8735  15.7186  16.1258  17.3403  17.6885
    18.6793  19.8356

          k = 0.1794 0.4486 0.4486 (  4002 PWs)   bands (ev):

   -69.9755 -39.9575 -36.0760 -36.0756 -36.0456 -16.3813 -16.3804 -16.1692
    13.2842  13.7704  14.7479  14.7676  16.3718  16.4607  17.2335  17.4109
    18.8558  20.1121

          k = 0.2691 0.2691 0.2691 (  3998 PWs)   bands (ev):

   -69.9770 -39.9766 -36.0597 -36.0597 -36.0567 -16.2783 -16.2698 -16.2698
    13.0410  14.7497  14.7497  14.8213  15.0148  15.0148  17.9713  17.9713
    18.9052  18.9052

          k = 0.2691 0.2691 0.3589 (  3992 PWs)   bands (ev):

   -69.9763 -39.9679 -36.0685 -36.0585 -36.0582 -16.3460 -16.2648 -16.2642
    13.5541  14.4464  14.7546  14.9132  15.0072  15.2108  17.7231  17.7737
    18.7615  19.3735

          k = 0.2691 0.2691 0.4486 (  3990 PWs)   bands (ev):

   -69.9759 -39.9628 -36.0742 -36.0586 -36.0578 -16.3890 -16.2609 -16.2586
    13.8114  14.2158  14.7494  14.8577  15.1602  15.6150  17.3351  17.6544
    18.7107  19.6930

          k = 0.2691 0.3589 0.3589 (  3988 PWs)   bands (ev):

   -69.9756 -39.9592 -36.0690 -36.0678 -36.0576 -16.3387 -16.3355 -16.2574
    13.8853  14.3124  14.8008  14.8799  15.0860  15.3192  17.5710  17.5720
    19.0481  19.5632

          k = 0.2691 0.3589 0.4486 (  3992 PWs)   bands (ev):

   -69.9752 -39.9540 -36.0743 -36.0684 -36.0571 -16.3799 -16.3319 -16.2531
    13.9058  14.2237  14.7625  14.8053  15.3465  15.6990  17.2451  17.4932
    19.1068  19.8699

          k = 0.2691 0.4486 0.4486 (  4000 PWs)   bands (ev):

   -69.9748 -39.9487 -36.0745 -36.0743 -36.0564 -16.3747 -16.3742 -16.2492
    13.8462  14.1839  14.6977  14.7218  15.8440  15.8750  17.0851  17.3368
    19.2731  20.1473

          k = 0.3589 0.3589 0.3589 (  3999 PWs)   bands (ev):

   -69.9749 -39.9507 -36.0677 -36.0677 -36.0675 -16.3304 -16.3298 -16.3298
    14.3193  14.5714  14.7527  14.7527  15.0899  15.0899  17.4058  17.4058
    19.5687  19.5687

          k = 0.3589 0.3589 0.4486 (  4008 PWs)   bands (ev):

   -69.9745 -39.9457 -36.0735 -36.0674 -36.0669 -16.3728 -16.3264 -16.3251
    14.3181  14.4674  14.7715  14.9016  15.0482  15.4154  17.1575  17.3333
    19.5807  19.9572

          k = 0.3589 0.4486 0.4486 (  3994 PWs)   bands (ev):

   -69.9741 -39.9407 -36.0731 -36.0731 -36.0664 -16.3686 -16.3685 -16.3221
    14.4206  14.5450  14.6932  14.7866  15.3451  15.3983  17.0472  17.2043
    19.7900  20.1749

          k = 0.4486 0.4486 0.4486 (  3972 PWs)   bands (ev):

   -69.9737 -39.9360 -36.0724 -36.0723 -36.0723 -16.3651 -16.3651 -16.3649
    14.6332  14.7621  14.7621  15.0634  15.0634  15.0706  17.0380  17.0380
    20.1905  20.1905

     the Fermi energy is    16.8383 ev

     WARNING: integrated charge=    28.00270292, expected=    28.00000000

!    total energy              =    -448.58285261 Ry
     estimated scf accuracy    <          5.2E-09 Ry
     smearing contrib. (-TS)   =       0.00003688 Ry
     internal energy E=F+TS    =    -448.58288949 Ry

     The total energy is F=E-TS. E is the sum of the following terms:
     one-electron contribution =    -156.62335467 Ry
     hartree contribution      =      93.41703890 Ry
     xc contribution           =     -52.82219202 Ry
     ewald contribution        =    -256.40145056 Ry
     one-center paw contrib.   =     -76.15293114 Ry

     convergence has been achieved in   8 iterations

     negative rho (up, down):  9.700E-04 0.000E+00

     Forces acting on atoms (cartesian axes, Ry/au):

     atom    1 type  1   force =     0.00000000    0.00000000    0.00000000
     atom    2 type  2   force =     0.00000000    0.00000000    0.00000000

     Total force =     0.000000     Total SCF correction =     0.000000


     Computing stress (Cartesian axis) and pressure


     negative rho (up, down):  9.700E-04 0.000E+00
          total   stress  (Ry/bohr**3)                   (kbar)     P=      -41.80
  -0.00028413   0.00000000   0.00000000          -41.80        0.00        0.00
   0.00000000  -0.00028413   0.00000000            0.00      -41.80        0.00
   0.00000000   0.00000000  -0.00028413            0.00        0.00      -41.80

     Energy error            =      1.5E-03 Ry
     Gradient error          =      0.0E+00 Ry/Bohr
     Cell gradient error     =      5.3E+00 kbar

     number of scf cycles    =   2
     number of bfgs steps    =   1

     enthalpy           old  =    -448.6414337133 Ry
     enthalpy           new  =    -448.6399588571 Ry

     CASE: enthalpy          _new > enthalpy          _old

     new trust radius        =       0.0125166246 bohr
     new conv_thr            =       0.0000000100 Ry

     new unit-cell volume =    173.71143 a.u.^3 (    25.74138 Ang^3 )
     density =      6.69031 g/cm^3

CELL_PARAMETERS (alat=  5.55330037)
   1.004750659   0.000000000   0.000000000
   0.000000000   1.004750659   0.000000000
   0.000000000   0.000000000   1.004750659

ATOMIC_POSITIONS (crystal)
Fe               0.5000000000        0.5000000000        0.5000000000
Ti               0.0000000000        0.0000000000        0.0000000000



     Writing config-only to output data dir ./TiFe.save/ :
     XML data file
     NEW-OLD atomic charge density approx. for the potential
     New effective cutoffs (rho, wfc): 1719.49  122.82

     Check: negative core charge=   -0.000001

     negative rho (up, down):  9.427E-04 0.000E+00
     extrapolated charge   28.00270, renormalised to   28.00000

     total cpu time spent up to now is       50.2 secs

     per-process dynamical memory:   153.3 Mb

     Self-consistent Calculation

     iteration #  1     ecut=   124.00 Ry     beta= 0.70
     Davidson diagonalization with overlap
     ethr =  1.00E-06,  avg # of iterations =  7.0

     negative rho (up, down):  9.630E-04 0.000E+00

     total cpu time spent up to now is       51.8 secs

     total energy              =    -448.58655462 Ry
     estimated scf accuracy    <       0.00002837 Ry

     iteration #  2     ecut=   124.00 Ry     beta= 0.70
     Davidson diagonalization with overlap
     ethr =  1.01E-07,  avg # of iterations =  4.0

     negative rho (up, down):  9.633E-04 0.000E+00

     total cpu time spent up to now is       53.0 secs

     total energy              =    -448.58680591 Ry
     estimated scf accuracy    <       0.00001824 Ry

     iteration #  3     ecut=   124.00 Ry     beta= 0.70
     Davidson diagonalization with overlap
     ethr =  6.51E-08,  avg # of iterations =  3.8

     negative rho (up, down):  9.646E-04 0.000E+00

     total cpu time spent up to now is       54.1 secs

     total energy              =    -448.58682618 Ry
     estimated scf accuracy    <       0.00004889 Ry

     iteration #  4     ecut=   124.00 Ry     beta= 0.70
     Davidson diagonalization with overlap
     ethr =  6.51E-08,  avg # of iterations =  3.3

     negative rho (up, down):  9.666E-04 0.000E+00

     total cpu time spent up to now is       55.1 secs

     total energy              =    -448.58683613 Ry
     estimated scf accuracy    <       0.00001451 Ry

     iteration #  5     ecut=   124.00 Ry     beta= 0.70
     Davidson diagonalization with overlap
     ethr =  5.18E-08,  avg # of iterations =  1.0

     negative rho (up, down):  9.668E-04 0.000E+00

     total cpu time spent up to now is       55.9 secs

     total energy              =    -448.58683674 Ry
     estimated scf accuracy    <       0.00000083 Ry

     iteration #  6     ecut=   124.00 Ry     beta= 0.70
     Davidson diagonalization with overlap
     ethr =  2.98E-09,  avg # of iterations =  3.2

     negative rho (up, down):  9.670E-04 0.000E+00

     total cpu time spent up to now is       56.9 secs

     End of self-consistent calculation

          k = 0.0000 0.0000 0.0000 (  3911 PWs)   bands (ev):

   -69.4896 -39.4697 -35.5501 -35.5501 -35.5501 -15.5679 -15.5679 -15.5679
     9.9090  13.6501  13.6501  16.3857  16.3857  16.3857  18.6870  18.6870
    20.5876  20.5876

          k = 0.0000 0.0000 0.0905 (  3947 PWs)   bands (ev):

   -69.4894 -39.4676 -35.5526 -35.5498 -35.5498 -15.5957 -15.5662 -15.5662
    10.0796  13.7319  13.7370  16.3731  16.3731  16.4229  18.5840  18.7256
    20.3422  20.3422

          k = 0.0000 0.0000 0.1810 (  3964 PWs)   bands (ev):

   -69.4887 -39.4621 -35.5591 -35.5488 -35.5488 -15.6697 -15.5617 -15.5617
    10.5750  13.9621  13.9715  16.3442  16.3442  16.5270  18.2862  18.8124
    19.7707  19.7707

          k = 0.0000 0.0000 0.2714 (  3988 PWs)   bands (ev):

   -69.4878 -39.4549 -35.5675 -35.5476 -35.5476 -15.7656 -15.5557 -15.5557
    11.3450  14.2161  14.3484  16.3192  16.3192  16.6749  17.8298  18.8418
    19.1378  19.1378

          k = 0.0000 0.0000 0.3619 (  4008 PWs)   bands (ev):

   -69.4870 -39.4483 -35.5753 -35.5464 -35.5464 -15.8527 -15.5503 -15.5503
    12.2976  14.3149  14.8148  16.3136  16.3136  16.8254  17.2874  18.6196
    18.6196  18.6489

          k = 0.0000 0.0000 0.4524 (  3992 PWs)   bands (ev):

   -69.4865 -39.4444 -35.5798 -35.5457 -35.5457 -15.9039 -15.5470 -15.5470
    13.2635  14.0404  15.2325  16.3216  16.3216  16.8231  16.9235  18.3266
    18.3266  18.3378

          k = 0.0000 0.0905 0.0905 (  3966 PWs)   bands (ev):

   -69.4891 -39.4654 -35.5534 -35.5513 -35.5494 -15.5966 -15.5908 -15.5644
    10.2469  13.8094  13.8250  16.2926  16.3528  16.5167  18.5691  18.6970
    20.0728  20.0968

          k = 0.0000 0.0905 0.1810 (  3978 PWs)   bands (ev):

   -69.4884 -39.4597 -35.5595 -35.5512 -35.5485 -15.6674 -15.5882 -15.5597
    10.7316  14.0217  14.0657  16.2139  16.3032  16.6317  18.3399  18.7728
    19.5395  19.5732

          k = 0.0000 0.0905 0.2714 (  3995 PWs)   bands (ev):

   -69.4875 -39.4521 -35.5681 -35.5504 -35.5472 -15.7623 -15.5815 -15.5535
    11.4818  14.2778  14.4148  16.1709  16.2472  16.7150  17.9513  18.7409
    19.0474  19.0833

          k = 0.0000 0.0905 0.3619 (  3991 PWs)   bands (ev):

   -69.4867 -39.4451 -35.5760 -35.5497 -35.5461 -15.8485 -15.5754 -15.5478
    12.4025  14.3672  14.8448  16.1758  16.1966  16.7215  17.5065  18.3370
    18.7559  18.8925

          k = 0.0000 0.0905 0.4524 (  3999 PWs)   bands (ev):

   -69.4862 -39.4410 -35.5806 -35.5493 -35.5454 -15.8992 -15.5717 -15.5445
    13.3245  14.0891  15.2264  16.1296  16.2110  16.6689  17.1861  18.0475
    18.6240  18.7000

          k = 0.0000 0.1810 0.1810 (  3972 PWs)   bands (ev):

   -69.4878 -39.4530 -35.5621 -35.5560 -35.5476 -15.6683 -15.6519 -15.5545
    11.1817  14.1646  14.3366  16.0434  16.2090  16.7067  18.3905  18.7326
    19.0318  19.2559

          k = 0.0000 0.1810 0.2714 (  4003 PWs)   bands (ev):

   -69.4869 -39.4444 -35.5698 -35.5579 -35.5464 -15.7535 -15.6501 -15.5476
    11.8641  14.3244  14.7051  15.9246  16.1184  16.6327  18.2212  18.4911
    18.8881  19.0805

          k = 0.0000 0.1810 0.3619 (  3997 PWs)   bands (ev):

   -69.4860 -39.4364 -35.5779 -35.5586 -35.5453 -15.8372 -15.6422 -15.5413
    12.6699  14.3516  15.0839  15.8891  16.0875  16.4277  17.9252  18.1563
    19.0075  19.0993

          k = 0.0000 0.1810 0.4524 (  3990 PWs)   bands (ev):

   -69.4855 -39.4317 -35.5828 -35.5589 -35.5446 -15.8865 -15.6373 -15.5375
    13.4225  14.1083  15.3610  15.9381  16.1170  16.2150  17.7577  17.9148
    19.0249  19.1935

          k = 0.0000 0.2714 0.2714 (  4000 PWs)   bands (ev):

   -69.4860 -39.4343 -35.5735 -35.5662 -35.5452 -15.7501 -15.7310 -15.5398
    12.4061  14.3010  15.1443  15.7207  16.0690  16.3708  18.2721  18.4464
    18.7888  19.2498

          k = 0.0000 0.2714 0.3619 (  3993 PWs)   bands (ev):

   -69.4852 -39.4250 -35.5806 -35.5701 -35.5441 -15.8225 -15.7286 -15.5327
    12.9703  14.1788  15.5789  15.6131  16.0534  16.2161  18.0911  18.4249
    18.9531  19.5197

          k = 0.0000 0.2714 0.4524 (  3996 PWs)   bands (ev):

   -69.4847 -39.4194 -35.5858 -35.5715 -35.5435 -15.8699 -15.7224 -15.5284
    13.4008  13.9836  15.6253  15.7964  15.8172  16.5569  17.8487  18.3822
    19.1566  19.7618

          k = 0.0000 0.3619 0.3619 (  4002 PWs)   bands (ev):

   -69.4843 -39.4144 -35.5840 -35.5797 -35.5431 -15.8136 -15.8026 -15.5248
    13.1779  13.9712  15.4301  15.7134  16.1712  16.6017  18.2123  18.7770
    18.7895  19.9158

          k = 0.0000 0.3619 0.4524 (  3999 PWs)   bands (ev):

   -69.4839 -39.4082 -35.5885 -35.5830 -35.5425 -15.8547 -15.7998 -15.5200
    13.2730  13.8301  15.3792  15.4787  16.5312  17.2353  17.9751  18.8336
    18.9964  20.2125

          k = 0.0000 0.4524 0.4524 (  3998 PWs)   bands (ev):

   -69.4834 -39.4014 -35.5903 -35.5897 -35.5420 -15.8462 -15.8447 -15.5151
    13.1708  13.7374  15.2608  15.2941  17.2184  17.6821  18.3462  18.5275
    19.0932  20.4784

          k = 0.0905 0.0905 0.0905 (  3959 PWs)   bands (ev):

   -69.4889 -39.4632 -35.5530 -35.5530 -35.5501 -15.5970 -15.5891 -15.5891
    10.4113  13.8987  13.8987  16.2705  16.2705  16.5920  18.6198  18.6198
    19.6638  20.3219

          k = 0.0905 0.0905 0.1810 (  3966 PWs)   bands (ev):

   -69.4882 -39.4571 -35.5596 -35.5520 -35.5500 -15.6650 -15.5878 -15.5845
    10.8869  14.1128  14.1279  16.1623  16.2119  16.6720  18.3970  18.7358
    19.1992  19.7476

          k = 0.0905 0.0905 0.2714 (  3992 PWs)   bands (ev):

   -69.4873 -39.4492 -35.5685 -35.5507 -35.5497 -15.7590 -15.5801 -15.5785
    11.6199  14.3780  14.4448  16.1043  16.1323  16.6672  18.0604  18.6857
    19.0065  19.1240

          k = 0.0905 0.0905 0.3619 (  3994 PWs)   bands (ev):

   -69.4865 -39.4419 -35.5766 -35.5496 -35.5493 -15.8444 -15.5730 -15.5729
    12.5126  14.4492  14.8454  16.0341  16.1332  16.5839  17.6839  18.4034
    18.6280  19.0984

          k = 0.0905 0.0905 0.4524 (  4007 PWs)   bands (ev):

   -69.4860 -39.4376 -35.5814 -35.5491 -35.5488 -15.8947 -15.5696 -15.5687
    13.3965  14.1568  15.1961  15.9120  16.2445  16.4968  17.4132  18.1205
    18.3565  19.1981

          k = 0.0905 0.1810 0.1810 (  3984 PWs)   bands (ev):

   -69.4875 -39.4503 -35.5617 -35.5566 -35.5501 -15.6652 -15.6501 -15.5805
    11.3325  14.2658  14.3859  16.0070  16.1043  16.6350  18.4583  18.7046
    18.9210  19.4694

          k = 0.0905 0.1810 0.2714 (  3994 PWs)   bands (ev):

   -69.4866 -39.4415 -35.5697 -35.5580 -35.5494 -15.7504 -15.6478 -15.5732
    12.0056  14.4412  14.7231  15.8816  16.0062  16.4574  18.3089  18.6097
    18.9242  19.1372

          k = 0.0905 0.1810 0.3619 (  4001 PWs)   bands (ev):

   -69.4858 -39.4333 -35.5782 -35.5584 -35.5486 -15.8336 -15.6398 -15.5664
    12.7949  14.4760  15.0391  15.8087  15.9968  16.2782  18.0766  18.2685
    18.7856  19.3934

          k = 0.0905 0.1810 0.4524 (  3993 PWs)   bands (ev):

   -69.4853 -39.4284 -35.5833 -35.5586 -35.5481 -15.8827 -15.6350 -15.5624
    13.5248  14.2173  15.2695  15.7411  16.0972  16.2191  17.9052  17.9838
    18.5865  19.7723

          k = 0.0905 0.2714 0.2714 (  3989 PWs)   bands (ev):

   -69.4857 -39.4313 -35.5731 -35.5665 -35.5485 -15.7465 -15.7291 -15.5652
    12.5510  14.4225  15.1537  15.6826  15.9430  16.1628  18.3871  18.5999
    18.7710  19.3801

          k = 0.0905 0.2714 0.3619 (  3985 PWs)   bands (ev):

   -69.4849 -39.4220 -35.5805 -35.5699 -35.5476 -15.8194 -15.7263 -15.5578
    13.1120  14.3019  15.5159  15.5743  15.9393  16.0852  18.1716  18.5132
    18.8400  19.7833

          k = 0.0905 0.2714 0.4524 (  4006 PWs)   bands (ev):

   -69.4844 -39.4164 -35.5858 -35.5711 -35.5470 -15.8668 -15.7203 -15.5534
    13.5287  14.1078  15.5433  15.5902  15.8873  16.4678  17.8850  18.4844
    18.7685  20.2571

          k = 0.0905 0.3619 0.3619 (  3992 PWs)   bands (ev):

   -69.4841 -39.4115 -35.5836 -35.5796 -35.5466 -15.8107 -15.8007 -15.5499
    13.3217  14.0935  15.4000  15.6257  16.1293  16.4325  18.1784  18.6681
    18.8760  20.2207

          k = 0.0905 0.3619 0.4524 (  4002 PWs)   bands (ev):

   -69.4836 -39.4053 -35.5882 -35.5826 -35.5460 -15.8523 -15.7978 -15.5452
    13.4075  13.9562  15.3471  15.4280  16.4567  17.0608  17.9349  18.6303
    18.9667  20.4501

          k = 0.0905 0.4524 0.4524 (  3993 PWs)   bands (ev):

   -69.4831 -39.3987 -35.5898 -35.5892 -35.5454 -15.8442 -15.8429 -15.5404
    13.3057  13.8635  15.2384  15.2673  17.1600  17.5379  18.1052  18.1975
    19.1701  20.6698

          k = 0.1810 0.1810 0.1810 (  3989 PWs)   bands (ev):

   -69.4868 -39.4431 -35.5606 -35.5606 -35.5545 -15.6614 -15.6453 -15.6453
    11.7623  14.5258  14.5258  15.9099  15.9099  16.3770  18.6223  18.6223
    18.9758  19.7070

          k = 0.1810 0.1810 0.2714 (  3992 PWs)   bands (ev):

   -69.4859 -39.4336 -35.5699 -35.5593 -35.5564 -15.7420 -15.6437 -15.6391
    12.4012  14.7318  14.7879  15.7749  15.7793  16.0701  18.4977  18.6924
    19.1090  19.2748

          k = 0.1810 0.1810 0.3619 (  3994 PWs)   bands (ev):

   -69.4851 -39.4249 -35.5790 -35.5580 -35.5575 -15.8239 -15.6335 -15.6333
    13.1244  14.7535  14.9618  15.6411  15.8064  16.0001  18.3667  18.4288
    18.6432  19.8242

          k = 0.1810 0.1810 0.4524 (  3986 PWs)   bands (ev):

   -69.4846 -39.4197 -35.5844 -35.5580 -35.5572 -15.8722 -15.6298 -15.6273
    13.7548  14.4238  15.1485  15.5210  15.9187  16.1729  18.0232  18.2946
    18.3760  20.1895

          k = 0.1810 0.2714 0.2714 (  3994 PWs)   bands (ev):

   -69.4851 -39.4233 -35.5719 -35.5673 -35.5572 -15.7368 -15.7242 -15.6328
    12.9573  14.7536  15.1752  15.5843  15.6605  15.7369  18.5141  18.6941
    19.0138  19.7432

          k = 0.1810 0.2714 0.3619 (  3988 PWs)   bands (ev):

   -69.4842 -39.4138 -35.5802 -35.5695 -35.5568 -15.8113 -15.7201 -15.6249
    13.5061  14.6246  15.3224  15.4705  15.7096  15.8224  18.2819  18.5250
    18.9083  20.0441

          k = 0.1810 0.2714 0.4524 (  3991 PWs)   bands (ev):

   -69.4838 -39.4082 -35.5860 -35.5701 -35.5564 -15.8585 -15.7144 -15.6201
    13.8740  14.4150  15.3001  15.4145  15.7916  16.2569  17.9265  18.3668
    18.8196  20.2600

          k = 0.1810 0.3619 0.3619 (  3990 PWs)   bands (ev):

   -69.4834 -39.4037 -35.5823 -35.5794 -35.5558 -15.8030 -15.7957 -15.6171
    13.7325  14.4127  15.3247  15.4361  15.9998  16.0175  18.1562  18.3841
    19.1671  20.2044

          k = 0.1810 0.3619 0.4524 (  3993 PWs)   bands (ev):

   -69.4830 -39.3976 -35.5875 -35.5815 -35.5553 -15.8459 -15.7924 -15.6124
    13.7896  14.2862  15.2707  15.3164  16.2115  16.6352  17.8755  18.2315
    19.2419  20.4409

          k = 0.1810 0.4524 0.4524 (  4002 PWs)   bands (ev):

   -69.4825 -39.3913 -35.5885 -35.5881 -35.5546 -15.8389 -15.8379 -15.6078
    13.6923  14.1998  15.1852  15.2060  16.8837  16.9836  17.7663  17.9463
    19.4263  20.7266

          k = 0.2714 0.2714 0.2714 (  3998 PWs)   bands (ev):

   -69.4842 -39.4128 -35.5704 -35.5704 -35.5667 -15.7270 -15.7177 -15.7177
    13.5240  15.1929  15.1929  15.2661  15.4643  15.4643  18.5212  18.5212
    19.4746  19.4746

          k = 0.2714 0.2714 0.3619 (  3992 PWs)   bands (ev):

   -69.4834 -39.4032 -35.5801 -35.5690 -35.5686 -15.8007 -15.7120 -15.7117
    14.0276  14.8863  15.1939  15.3644  15.4625  15.6730  18.2686  18.3158
    19.3252  19.9607

          k = 0.2714 0.2714 0.4524 (  3990 PWs)   bands (ev):

   -69.4829 -39.3974 -35.5863 -35.5692 -35.5682 -15.8476 -15.7081 -15.7052
    14.2573  14.6598  15.1840  15.3122  15.6321  16.0969  17.8709  18.1917
    19.2723  20.2935

          k = 0.2714 0.3619 0.3619 (  3988 PWs)   bands (ev):

   -69.4826 -39.3933 -35.5807 -35.5792 -35.5680 -15.7928 -15.7892 -15.7041
    14.3391  14.7526  15.2419  15.3313  15.5518  15.7913  18.1092  18.1107
    19.6228  20.1569

          k = 0.2714 0.3619 0.4524 (  3992 PWs)   bands (ev):

   -69.4821 -39.3875 -35.5865 -35.5800 -35.5674 -15.8376 -15.7853 -15.6995
    14.3358  14.6662  15.2028  15.2533  15.8289  16.1878  17.7759  18.0277
    19.6839  20.4758

          k = 0.2714 0.4524 0.4524 (  4000 PWs)   bands (ev):

   -69.4816 -39.3815 -35.5868 -35.5866 -35.5667 -15.8318 -15.8313 -15.6953
    14.2678  14.6260  15.1366  15.1632  16.3421  16.3707  17.6088  17.8687
    19.8574  20.7631

          k = 0.3619 0.3619 0.3619 (  3999 PWs)   bands (ev):

   -69.4818 -39.3838 -35.5792 -35.5792 -35.5789 -15.7835 -15.7831 -15.7831
    14.7506  15.0548  15.1959  15.1959  15.5520  15.5520  17.9385  17.9385
    20.1625  20.1625

          k = 0.3619 0.3619 0.4524 (  4008 PWs)   bands (ev):

   -69.4813 -39.3781 -35.5857 -35.5789 -35.5783 -15.8299 -15.7795 -15.7778
    14.7489  14.9129  15.2218  15.3515  15.5265  15.8903  17.6837  17.8631
    20.1749  20.5661

          k = 0.3619 0.4524 0.4524 (  3994 PWs)   bands (ev):

   -69.4808 -39.3726 -35.5852 -35.5852 -35.5778 -15.8254 -15.8253 -15.7748
    14.8547  14.9945  15.1371  15.2393  15.8214  15.8735  17.5690  17.7311
    20.3924  20.7917

          k = 0.4524 0.4524 0.4524 (  3972 PWs)   bands (ev):

   -69.4803 -39.3673 -35.5844 -35.5843 -35.5843 -15.8217 -15.8217 -15.8214
    15.0789  15.2171  15.2171  15.5187  15.5187  15.5358  17.5594  17.5594
    20.8081  20.8081

     the Fermi energy is    17.2947 ev

!    total energy              =    -448.58683683 Ry
     estimated scf accuracy    <          6.7E-09 Ry
     smearing contrib. (-TS)   =       0.00006354 Ry
     internal energy E=F+TS    =    -448.58690037 Ry

     The total energy is F=E-TS. E is the sum of the following terms:
     one-electron contribution =    -153.23823330 Ry
     hartree contribution      =      92.25929583 Ry
     xc contribution           =     -52.86221741 Ry
     ewald contribution        =    -258.59221935 Ry
     one-center paw contrib.   =     -76.15352615 Ry

     convergence has been achieved in   6 iterations

     negative rho (up, down):  9.670E-04 0.000E+00

     Forces acting on atoms (cartesian axes, Ry/au):

     atom    1 type  1   force =     0.00000000    0.00000000    0.00000000
     atom    2 type  2   force =     0.00000000    0.00000000    0.00000000

     Total force =     0.000000     Total SCF correction =     0.000000


     Computing stress (Cartesian axis) and pressure


     negative rho (up, down):  9.670E-04 0.000E+00
          total   stress  (Ry/bohr**3)                   (kbar)     P=        2.40
   0.00001634   0.00000000   0.00000000            2.40        0.00        0.00
   0.00000000   0.00001634   0.00000000            0.00        2.40        0.00
   0.00000000   0.00000000   0.00001634            0.00        0.00        2.40

     Energy error            =      1.1E-03 Ry
     Gradient error          =      0.0E+00 Ry/Bohr
     Cell gradient error     =      5.0E+01 kbar

     number of scf cycles    =   3
     number of bfgs steps    =   1

     enthalpy           old  =    -448.6414337133 Ry
     enthalpy           new  =    -448.6425039465 Ry

     CASE: enthalpy          _new < enthalpy          _old

     new trust radius        =       0.0186952379 bohr
     new conv_thr            =            1.0E-10 Ry

     new unit-cell volume =    177.43374 a.u.^3 (    26.29297 Ang^3 )
     density =      6.54996 g/cm^3

CELL_PARAMETERS (alat=  5.55330037)
   1.011876647   0.000000000   0.000000000
   0.000000000   1.011876647   0.000000000
   0.000000000   0.000000000   1.011876647

ATOMIC_POSITIONS (crystal)
Fe               0.5000000000        0.5000000000        0.5000000000
Ti               0.0000000000        0.0000000000        0.0000000000



     Writing config-only to output data dir ./TiFe.save/ :
     XML data file
     NEW-OLD atomic charge density approx. for the potential
     New effective cutoffs (rho, wfc): 1695.36  121.10

     Check: negative core charge=   -0.000001

     negative rho (up, down):  9.905E-04 0.000E+00

     total cpu time spent up to now is       58.9 secs

     per-process dynamical memory:   153.5 Mb

     Self-consistent Calculation

     iteration #  1     ecut=   124.00 Ry     beta= 0.70
     Davidson diagonalization with overlap
     ethr =  1.00E-06,  avg # of iterations =  6.9

     negative rho (up, down):  9.730E-04 0.000E+00

     total cpu time spent up to now is       60.4 secs

     WARNING: integrated charge=    28.00245137, expected=    28.00000000

     total energy              =    -448.58175815 Ry
     estimated scf accuracy    <       0.00014922 Ry

     iteration #  2     ecut=   124.00 Ry     beta= 0.70
     Davidson diagonalization with overlap
     ethr =  5.33E-07,  avg # of iterations =  4.2

     negative rho (up, down):  9.667E-04 0.000E+00

     total cpu time spent up to now is       61.6 secs

     WARNING: integrated charge=    28.00229842, expected=    28.00000000

     total energy              =    -448.58569794 Ry
     estimated scf accuracy    <       0.01129755 Ry

     iteration #  3     ecut=   124.00 Ry     beta= 0.70
     Davidson diagonalization with overlap
     ethr =  5.33E-07,  avg # of iterations =  4.8

     negative rho (up, down):  9.703E-04 0.000E+00

     total cpu time spent up to now is       62.7 secs

     WARNING: integrated charge=    28.00215702, expected=    28.00000000

     total energy              =    -448.58385061 Ry
     estimated scf accuracy    <       0.00018020 Ry

     iteration #  4     ecut=   124.00 Ry     beta= 0.70
     Davidson diagonalization with overlap
     ethr =  5.33E-07,  avg # of iterations =  1.9

     negative rho (up, down):  9.705E-04 0.000E+00

     total cpu time spent up to now is       63.7 secs

     WARNING: integrated charge=    28.00284060, expected=    28.00000000

     total energy              =    -448.58264800 Ry
     estimated scf accuracy    <       0.00001068 Ry

     iteration #  5     ecut=   124.00 Ry     beta= 0.70
     Davidson diagonalization with overlap
     ethr =  3.81E-08,  avg # of iterations =  4.4

     negative rho (up, down):  9.696E-04 0.000E+00

     total cpu time spent up to now is       64.7 secs

     WARNING: integrated charge=    28.00309492, expected=    28.00000000

     total energy              =    -448.58239103 Ry
     estimated scf accuracy    <       0.00000237 Ry

     iteration #  6     ecut=   124.00 Ry     beta= 0.70
     Davidson diagonalization with overlap
     ethr =  8.48E-09,  avg # of iterations =  2.4

     negative rho (up, down):  9.693E-04 0.000E+00

     total cpu time spent up to now is       65.7 secs

     WARNING: integrated charge=    28.00303674, expected=    28.00000000

     total energy              =    -448.58255617 Ry
     estimated scf accuracy    <       0.00000005 Ry

     iteration #  7     ecut=   124.00 Ry     beta= 0.70
     Davidson diagonalization with overlap
     ethr =  1.92E-10,  avg # of iterations =  5.5

     negative rho (up, down):  9.693E-04 0.000E+00

     total cpu time spent up to now is       67.0 secs

     WARNING: integrated charge=    28.00310604, expected=    28.00000000

     total energy              =    -448.58258728 Ry
     estimated scf accuracy    <       0.00000012 Ry

     iteration #  8     ecut=   124.00 Ry     beta= 0.70
     Davidson diagonalization with overlap
[...]

     total cpu time spent up to now is      726.3 secs

     WARNING: integrated charge=    28.00271307, expected=    28.00000000

     total energy              =    -448.58285595 Ry
     estimated scf accuracy    <       0.00000001 Ry

     iteration # 10     ecut=   124.00 Ry     beta= 0.70
     Davidson diagonalization with overlap
     ethr =  1.06E-11,  avg # of iterations =  3.4

     negative rho (up, down):  9.700E-04 0.000E+00

     total cpu time spent up to now is      727.3 secs

     WARNING: integrated charge=    28.00270583, expected=    28.00000000

     total energy              =    -448.58284564 Ry
     estimated scf accuracy    <          1.6E-09 Ry

     iteration # 11     ecut=   124.00 Ry     beta= 0.70
     Davidson diagonalization with overlap
     ethr =  5.55E-12,  avg # of iterations =  1.1

     negative rho (up, down):  9.699E-04 0.000E+00

     total cpu time spent up to now is      728.2 secs

     WARNING: integrated charge=    28.00270502, expected=    28.00000000

     total energy              =    -448.58284911 Ry
     estimated scf accuracy    <          1.1E-10 Ry

     iteration # 12     ecut=   124.00 Ry     beta= 0.70
     Davidson diagonalization with overlap
     ethr =  3.77E-13,  avg # of iterations =  3.9

     negative rho (up, down):  9.700E-04 0.000E+00

     total cpu time spent up to now is      729.3 secs

     End of self-consistent calculation

          k = 0.0000 0.0000 0.0000 (  3911 PWs)   bands (ev):

   -69.9820 -40.0279 -36.0416 -36.0416 -36.0416 -16.1328 -16.1328 -16.1328
     9.4812  13.2717  13.2717  15.9074  15.9074  15.9074  18.1391  18.1391
    19.9746  19.9746

          k = 0.0000 0.0000 0.0897 (  3947 PWs)   bands (ev):

   -69.9818 -40.0260 -36.0439 -36.0413 -36.0413 -16.1582 -16.1313 -16.1313
     9.6479  13.3513  13.3539  15.8951  15.8951  15.9433  18.0406  18.1758
    19.7386  19.7386

          k = 0.0000 0.0000 0.1794 (  3964 PWs)   bands (ev):

   -69.9812 -40.0209 -36.0499 -36.0404 -36.0404 -16.2258 -16.1270 -16.1270
    10.1325  13.5654  13.5840  15.8667  15.8667  16.0439  17.7554  18.2570
    19.1880  19.1880

          k = 0.0000 0.0000 0.2691 (  3988 PWs)   bands (ev):

   -69.9804 -40.0143 -36.0578 -36.0393 -36.0393 -16.3134 -16.1215 -16.1215
    10.8879  13.7992  13.9497  15.8415  15.8415  16.1867  17.3180  18.2790
    18.5777  18.5777

          k = 0.0000 0.0000 0.3589 (  4008 PWs)   bands (ev):

   -69.9796 -40.0081 -36.0651 -36.0383 -36.0383 -16.3930 -16.1164 -16.1164
    11.8266  13.8737  14.4014  15.8348  15.8348  16.3318  16.7974  18.0782
    18.0782  18.0812

          k = 0.0000 0.0000 0.4486 (  3992 PWs)   bands (ev):

   -69.9792 -40.0045 -36.0693 -36.0377 -36.0377 -16.4399 -16.1134 -16.1134
    12.7869  13.5759  14.8046  15.8413  15.8413  16.3520  16.4263  17.7731
    17.7960  17.7960

          k = 0.0000 0.0897 0.0897 (  3966 PWs)   bands (ev):

   -69.9815 -40.0240 -36.0445 -36.0428 -36.0410 -16.1590 -16.1539 -16.1296
     9.8115  13.4254  13.4384  15.8180  15.8754  16.0332  18.0262  18.1483
    19.4797  19.5021

          k = 0.0000 0.0897 0.1794 (  3978 PWs)   bands (ev):

   -69.9809 -40.0187 -36.0502 -36.0427 -36.0401 -16.2237 -16.1513 -16.1253
    10.2861  13.6281  13.6687  15.7421  15.8269  16.1435  17.8067  18.2193
    18.9644  18.9985

          k = 0.0000 0.0897 0.2691 (  3995 PWs)   bands (ev):

   -69.9801 -40.0117 -36.0583 -36.0420 -36.0390 -16.3104 -16.1452 -16.1195
    11.0229  13.8623  14.0095  15.7001  15.7718  16.2236  17.4344  18.1834
    18.4883  18.5261

          k = 0.0000 0.0897 0.3589 (  3991 PWs)   bands (ev):

   -69.9794 -40.0053 -36.0656 -36.0413 -36.0380 -16.3892 -16.1394 -16.1142
    11.9317  13.9267  14.4276  15.7034  15.7223  16.2307  17.0070  17.7931
    18.2097  18.3287

          k = 0.0000 0.0897 0.4486 (  3999 PWs)   bands (ev):

   -69.9790 -40.0014 -36.0700 -36.0409 -36.0374 -16.4357 -16.1360 -16.1111
    12.8502  13.6264  14.7971  15.6583  15.7357  16.1818  16.6975  17.5098
    18.0815  18.1384

          k = 0.0000 0.1794 0.1794 (  3972 PWs)   bands (ev):

   -69.9803 -40.0127 -36.0523 -36.0473 -36.0393 -16.2242 -16.2099 -16.1204
    10.7284  13.7660  13.9265  15.5783  15.7347  16.2148  17.8544  18.1812
    18.4729  18.6935

          k = 0.0000 0.1794 0.2691 (  4003 PWs)   bands (ev):

   -69.9795 -40.0048 -36.0595 -36.0489 -36.0383 -16.3025 -16.2080 -16.1141
    11.4018  13.9142  14.2796  15.4637  15.6451  16.1434  17.6934  17.9451
    18.3308  18.5239

          k = 0.0000 0.1794 0.3589 (  3997 PWs)   bands (ev):

   -69.9788 -39.9976 -36.0671 -36.0493 -36.0373 -16.3791 -16.2007 -16.1083
    12.2031  13.9229  14.6461  15.4288  15.6122  15.9471  17.4087  17.6187
    18.4401  18.5405

          k = 0.0000 0.1794 0.4486 (  3990 PWs)   bands (ev):

   -69.9784 -39.9933 -36.0717 -36.0495 -36.0367 -16.4243 -16.1963 -16.1048
    12.9616  13.6591  14.9171  15.4745  15.6364  15.7440  17.2457  17.3835
    18.4505  18.6299

          k = 0.0000 0.2691 0.2691 (  4000 PWs)   bands (ev):

   -69.9788 -39.9958 -36.0626 -36.0566 -36.0372 -16.2991 -16.2824 -16.1070
    11.9442  13.8882  14.6998  15.2674  15.5919  15.8916  17.7321  17.9114
    18.2319  18.6862

          k = 0.0000 0.2691 0.3589 (  3993 PWs)   bands (ev):

   -69.9780 -39.9875 -36.0692 -36.0598 -36.0363 -16.3659 -16.2801 -16.1004
    12.5186  13.7593  15.1173  15.1634  15.5865  15.7255  17.5546  17.8891
    18.3872  18.9450

          k = 0.0000 0.2691 0.4486 (  3996 PWs)   bands (ev):

   -69.9776 -39.9825 -36.0741 -36.0608 -36.0357 -16.4095 -16.2745 -16.0965
    12.9678  13.5523  15.1744  15.3399  15.3460  16.0477  17.3162  17.8498
    18.5762  19.1774

          k = 0.0000 0.3589 0.3589 (  4002 PWs)   bands (ev):

   -69.9773 -39.9781 -36.0720 -36.0685 -36.0354 -16.3579 -16.3482 -16.0932
    12.7504  13.5540  14.9871  15.2592  15.6876  16.0879  17.6672  18.2253
    18.2296  19.3262

          k = 0.0000 0.3589 0.4486 (  3999 PWs)   bands (ev):

   -69.9769 -39.9726 -36.0762 -36.0712 -36.0348 -16.3958 -16.3456 -16.0889
    12.8651  13.4100  14.9377  15.0334  16.0329  16.7012  17.4338  18.2791
    18.4233  19.6115

          k = 0.0000 0.4486 0.4486 (  3998 PWs)   bands (ev):

   -69.9765 -39.9667 -36.0776 -36.0772 -36.0343 -16.3883 -16.3869 -16.0844
    12.7755  13.3228  14.8235  14.8554  16.7034  17.1435  17.7827  17.9572
    18.5324  19.8674

          k = 0.0897 0.0897 0.0897 (  3959 PWs)   bands (ev):

   -69.9813 -40.0219 -36.0442 -36.0442 -36.0418 -16.1592 -16.1523 -16.1523
     9.9723  13.5099  13.5099  15.7965  15.7965  16.1049  18.0745  18.0745
    19.0853  19.7189

          k = 0.0897 0.0897 0.1794 (  3966 PWs)   bands (ev):

   -69.9807 -40.0164 -36.0503 -36.0433 -36.0417 -16.2215 -16.1509 -16.1480
    10.4384  13.7179  13.7260  15.6922  15.7396  16.1811  17.8613  18.1839
    18.6372  19.1654

          k = 0.0897 0.0897 0.2691 (  3992 PWs)   bands (ev):

   -69.9799 -40.0091 -36.0585 -36.0422 -36.0413 -16.3074 -16.1438 -16.1423
    11.1589  13.9567  14.0400  15.6355  15.6621  16.1765  17.5389  18.1316
    18.4488  18.5635

          k = 0.0897 0.0897 0.3589 (  3994 PWs)   bands (ev):

   -69.9792 -40.0024 -36.0661 -36.0411 -36.0409 -16.3856 -16.1373 -16.1371
    12.0413  14.0056  14.4283  15.5669  15.6617  16.0976  17.1775  17.8526
    18.0848  18.5327

          k = 0.0897 0.0897 0.4486 (  4007 PWs)   bands (ev):

   -69.9788 -39.9984 -36.0705 -36.0407 -36.0405 -16.4316 -16.1341 -16.1334
    12.9233  13.6939  14.7679  15.4490  15.7666  16.0150  16.9168  17.5727
    17.8231  18.6259

          k = 0.0897 0.1794 0.1794 (  3984 PWs)   bands (ev):

   -69.9801 -40.0102 -36.0520 -36.0477 -36.0417 -16.2214 -16.2082 -16.1442
    10.8762  13.8628  13.9744  15.5430  15.6350  16.1444  17.9193  18.1544
    18.3674  18.8972

          k = 0.0897 0.1794 0.2691 (  3994 PWs)   bands (ev):

   -69.9793 -40.0022 -36.0595 -36.0489 -36.0410 -16.2996 -16.2058 -16.1375
    11.5405  14.0269  14.2969  15.4219  15.5384  15.9739  17.7768  18.0587
    18.3673  18.5768

          k = 0.0897 0.1794 0.3589 (  4001 PWs)   bands (ev):

   -69.9786 -39.9948 -36.0673 -36.0491 -36.0403 -16.3758 -16.1985 -16.1313
    12.3259  14.0423  14.6039  15.3501  15.5268  15.8024  17.5553  17.7251
    18.2303  18.8196

          k = 0.0897 0.1794 0.4486 (  3993 PWs)   bands (ev):

   -69.9782 -39.9904 -36.0721 -36.0492 -36.0399 -16.4208 -16.1941 -16.1275
    13.0621  13.7647  14.8318  15.2812  15.6254  15.7403  17.3856  17.4511
    18.0366  19.1817

          k = 0.0897 0.2691 0.2691 (  3989 PWs)   bands (ev):

   -69.9785 -39.9931 -36.0622 -36.0568 -36.0402 -16.2959 -16.2806 -16.1302
    12.0856  14.0053  14.7091  15.2302  15.4725  15.6905  17.8429  18.0604
    18.2142  18.8094

          k = 0.0897 0.2691 0.3589 (  3985 PWs)   bands (ev):

   -69.9778 -39.9848 -36.0691 -36.0596 -36.0394 -16.3631 -16.2780 -16.1235
    12.6566  13.8782  15.0596  15.1234  15.4741  15.6019  17.6321  17.9741
    18.2803  19.1964

          k = 0.0897 0.2691 0.4486 (  4006 PWs)   bands (ev):

   -69.9774 -39.9798 -36.0741 -36.0605 -36.0389 -16.4067 -16.2725 -16.1194
    13.0926  13.6729  15.0952  15.1359  15.4156  15.9646  17.3505  17.9485
    18.2079  19.6531

          k = 0.0897 0.3589 0.3589 (  3992 PWs)   bands (ev):

   -69.9771 -39.9755 -36.0716 -36.0684 -36.0385 -16.3552 -16.3464 -16.1163
    12.8907  13.6721  14.9575  15.1740  15.6466  15.9256  17.6371  18.1075
    18.3257  19.6179

          k = 0.0897 0.3589 0.4486 (  4002 PWs)   bands (ev):

   -69.9767 -39.9700 -36.0760 -36.0708 -36.0380 -16.3936 -16.3437 -16.1120
    12.9965  13.5321  14.9060  14.9838  15.9593  16.5328  17.3970  18.0691
    18.4125  19.8424

          k = 0.0897 0.4486 0.4486 (  3993 PWs)   bands (ev):

   -69.9763 -39.9642 -36.0772 -36.0768 -36.0374 -16.3864 -16.3852 -16.1075
    12.9071  13.4448  14.8012  14.8289  16.6448  16.9983  17.5586  17.6420
    18.6074  20.0558

          k = 0.1794 0.1794 0.1794 (  3989 PWs)   bands (ev):

   -69.9795 -40.0037 -36.0511 -36.0511 -36.0460 -16.2179 -16.2037 -16.2037
    11.2986  14.1104  14.1104  15.4486  15.4486  15.8947  18.0757  18.0757
    18.4182  19.1259

          k = 0.1794 0.1794 0.2691 (  3992 PWs)   bands (ev):

   -69.9787 -39.9952 -36.0596 -36.0498 -36.0476 -16.2920 -16.2021 -16.1978
    11.9300  14.3107  14.3549  15.3176  15.3214  15.5995  17.9565  18.1373
    18.5490  18.7052

          k = 0.1794 0.1794 0.3589 (  3994 PWs)   bands (ev):

   -69.9780 -39.9873 -36.0679 -36.0487 -36.0483 -16.3671 -16.1929 -16.1924
    12.6523  14.3061  14.5346  15.1859  15.3449  15.5328  17.8318  17.8754
    18.0994  19.2339

          k = 0.1794 0.1794 0.4486 (  3986 PWs)   bands (ev):

   -69.9776 -39.9827 -36.0730 -36.0487 -36.0480 -16.4114 -16.1892 -16.1873
    13.2925  13.9684  14.7181  15.0665  15.4502  15.6937  17.4791  17.7645
    17.8402  19.5913

          k = 0.1794 0.2691 0.2691 (  3994 PWs)   bands (ev):

   -69.9780 -39.9860 -36.0612 -36.0574 -36.0481 -16.2872 -16.2760 -16.1921
    12.4827  14.3250  14.7306  15.1338  15.2047  15.2771  17.9666  18.1388
    18.4599  19.1551

          k = 0.1794 0.2691 0.3589 (  3988 PWs)   bands (ev):

   -69.9772 -39.9775 -36.0688 -36.0592 -36.0476 -16.3557 -16.2722 -16.1849
    13.0410  14.1906  14.8765  15.0212  15.2442  15.3564  17.7385  17.9740
    18.3585  19.4529

          k = 0.1794 0.2691 0.4486 (  3991 PWs)   bands (ev):

   -69.9768 -39.9725 -36.0742 -36.0596 -36.0473 -16.3991 -16.2670 -16.1805
    13.4303  13.9722  14.8610  14.9630  15.3186  15.7670  17.3886  17.8233
    18.2736  19.6598

          k = 0.1794 0.3589 0.3589 (  3990 PWs)   bands (ev):

   -69.9765 -39.9685 -36.0705 -36.0682 -36.0468 -16.3481 -16.3417 -16.1777
    13.2918  13.9811  14.8832  14.9887  15.5207  15.5288  17.6176  17.8335
    18.6075  19.6081

          k = 0.1794 0.3589 0.4486 (  3993 PWs)   bands (ev):

   -69.9761 -39.9631 -36.0753 -36.0698 -36.0463 -16.3877 -16.3386 -16.1735
    13.3699  13.8523  14.8304  14.8734  15.7185  16.1258  17.3402  17.6884
    18.6792  19.8355

          k = 0.1794 0.4486 0.4486 (  4002 PWs)   bands (ev):

   -69.9757 -39.9576 -36.0761 -36.0758 -36.0457 -16.3814 -16.3805 -16.1693
    13.2842  13.7703  14.7478  14.7676  16.3717  16.4607  17.2334  17.4108
    18.8557  20.1120

          k = 0.2691 0.2691 0.2691 (  3998 PWs)   bands (ev):

   -69.9772 -39.9767 -36.0599 -36.0599 -36.0568 -16.2784 -16.2699 -16.2699
    13.0410  14.7496  14.7496  14.8212  15.0147  15.0147  17.9712  17.9712
    18.9051  18.9051

          k = 0.2691 0.2691 0.3589 (  3992 PWs)   bands (ev):

   -69.9765 -39.9680 -36.0687 -36.0587 -36.0583 -16.3461 -16.2649 -16.2643
    13.5541  14.4464  14.7546  14.9132  15.0071  15.2108  17.7230  17.7736
    18.7615  19.3734

          k = 0.2691 0.2691 0.4486 (  3990 PWs)   bands (ev):

   -69.9761 -39.9629 -36.0743 -36.0588 -36.0579 -16.3891 -16.2610 -16.2587
    13.8114  14.2158  14.7494  14.8576  15.1601  15.6150  17.3350  17.6543
    18.7106  19.6929

          k = 0.2691 0.3589 0.3589 (  3988 PWs)   bands (ev):

   -69.9758 -39.9593 -36.0691 -36.0679 -36.0577 -16.3388 -16.3356 -16.2575
    13.8853  14.3124  14.8007  14.8799  15.0860  15.3191  17.5709  17.5719
    19.0480  19.5631

          k = 0.2691 0.3589 0.4486 (  3992 PWs)   bands (ev):

   -69.9754 -39.9541 -36.0745 -36.0685 -36.0572 -16.3800 -16.3320 -16.2532
    13.9058  14.2237  14.7624  14.8052  15.3464  15.6989  17.2450  17.4931
    19.1067  19.8698

          k = 0.2691 0.4486 0.4486 (  4000 PWs)   bands (ev):

   -69.9749 -39.9489 -36.0746 -36.0745 -36.0566 -16.3748 -16.3743 -16.2493
    13.8462  14.1839  14.6976  14.7218  15.8440  15.8750  17.0850  17.3367
    19.2730  20.1472

          k = 0.3589 0.3589 0.3589 (  3999 PWs)   bands (ev):

   -69.9751 -39.9508 -36.0678 -36.0678 -36.0676 -16.3305 -16.3299 -16.3299
    14.3192  14.5714  14.7526  14.7526  15.0898  15.0898  17.4057  17.4057
    19.5686  19.5686

          k = 0.3589 0.3589 0.4486 (  4008 PWs)   bands (ev):

   -69.9747 -39.9458 -36.0737 -36.0676 -36.0670 -16.3729 -16.3265 -16.3252
    14.3180  14.4673  14.7714  14.9016  15.0482  15.4153  17.1574  17.3332
    19.5806  19.9571

          k = 0.3589 0.4486 0.4486 (  3994 PWs)   bands (ev):

   -69.9742 -39.9408 -36.0732 -36.0732 -36.0666 -16.3687 -16.3686 -16.3222
    14.4205  14.5450  14.6932  14.7865  15.3451  15.3982  17.0471  17.2042
    19.7899  20.1748

          k = 0.4486 0.4486 0.4486 (  3972 PWs)   bands (ev):

   -69.9738 -39.9361 -36.0725 -36.0724 -36.0724 -16.3652 -16.3652 -16.3650
    14.6331  14.7621  14.7621  15.0634  15.0634  15.0706  17.0379  17.0379
    20.1904  20.1904

     the Fermi energy is    16.8382 ev

     WARNING: integrated charge=    28.00270504, expected=    28.00000000

!    total energy              =    -448.58284998 Ry
     estimated scf accuracy    <          8.8E-12 Ry
     smearing contrib. (-TS)   =       0.00003688 Ry
     internal energy E=F+TS    =    -448.58288687 Ry

     The total energy is F=E-TS. E is the sum of the following terms:
     one-electron contribution =    -156.62417429 Ry
     hartree contribution      =      93.41797202 Ry
     xc contribution           =     -52.82232849 Ry
     ewald contribution        =    -256.40142275 Ry
     one-center paw contrib.   =     -76.15293336 Ry

     convergence has been achieved in  12 iterations

     negative rho (up, down):  9.700E-04 0.000E+00

     Forces acting on atoms (cartesian axes, Ry/au):

     atom    1 type  1   force =     0.00000000    0.00000000    0.00000000
     atom    2 type  2   force =     0.00000000    0.00000000    0.00000000

     Total force =     0.000000     Total SCF correction =     0.000000


     Computing stress (Cartesian axis) and pressure


     negative rho (up, down):  9.700E-04 0.000E+00
          total   stress  (Ry/bohr**3)                   (kbar)     P=      -41.48
  -0.00028198   0.00000000   0.00000000          -41.48        0.00        0.00
   0.00000000  -0.00028198   0.00000000            0.00      -41.48        0.00
   0.00000000   0.00000000  -0.00028198            0.00        0.00      -41.48

     Energy error            =      2.9E-03 Ry
     Gradient error          =      0.0E+00 Ry/Bohr
     Cell gradient error     =      5.7E+00 kbar

     number of scf cycles    =  50
     number of bfgs steps    =   4

     enthalpy           old  =    -448.6428369806 Ry
     enthalpy           new  =    -448.6399562467 Ry

     CASE: enthalpy          _new > enthalpy          _old

     new trust radius        =       0.0019427412 bohr

     The maximum number of steps has been reached.

     End of BFGS Geometry Optimization
     new unit-cell volume =    175.21456 a.u.^3 (    25.96412 Ang^3 )
     density =      6.63292 g/cm^3

CELL_PARAMETERS (alat=  5.55330037)
   1.007640388   0.000000000   0.000000000
   0.000000000   1.007640388   0.000000000
   0.000000000   0.000000000   1.007640388

ATOMIC_POSITIONS (crystal)
Fe               0.5000000000        0.5000000000        0.5000000000
Ti               0.0000000000        0.0000000000        0.0000000000



     Writing config-only to output data dir ./TiFe.save/ :
     XML data file
     NEW-OLD atomic charge density approx. for the potential
     New effective cutoffs (rho, wfc): 1709.65  122.12

     Check: negative core charge=   -0.000001

     negative rho (up, down):  9.528E-04 0.000E+00
     extrapolated charge   28.00271, renormalised to   28.00000

     Writing all to output data dir ./TiFe.save/ :
     XML data file, charge density, pseudopotentials, collected wavefunctions

     init_run     :      1.19s CPU      1.23s WALL (       1 calls)
     electrons    :    601.47s CPU    632.08s WALL (      50 calls)
     update_pot   :      4.00s CPU      4.26s WALL (      50 calls)
     forces       :     11.53s CPU     12.36s WALL (      50 calls)
     stress       :     68.20s CPU     70.57s WALL (      50 calls)

     Called by init_run:
     wfcinit      :      0.29s CPU      0.30s WALL (       1 calls)
     potinit      :      0.37s CPU      0.38s WALL (       1 calls)
     hinit0       :      0.36s CPU      0.37s WALL (       1 calls)

     Called by electrons:
     c_bands      :    368.17s CPU    377.03s WALL (     587 calls)
     sum_band     :    128.10s CPU    139.37s WALL (     587 calls)
     v_of_rho     :     12.77s CPU     13.86s WALL (     614 calls)
     newd         :     68.25s CPU     77.10s WALL (     614 calls)
     PAW_pot      :     33.27s CPU     33.69s WALL (     664 calls)
     mix_rho      :      1.25s CPU      1.40s WALL (     587 calls)

     Called by c_bands:
     init_us_2    :     10.51s CPU     10.83s WALL (   74200 calls)
     cegterg      :    351.15s CPU    359.42s WALL (   32872 calls)

     Called by *egterg:
     cdiaghg      :     43.77s CPU     44.74s WALL (  142935 calls)
     h_psi        :    261.43s CPU    267.85s WALL (  147079 calls)
     s_psi        :      7.05s CPU      7.24s WALL (  147079 calls)
     g_psi        :      1.70s CPU      1.73s WALL (  114151 calls)

     Called by h_psi:
     h_psi:calbec :     10.17s CPU     10.42s WALL (  147079 calls)
     vloc_psi     :    242.78s CPU    248.74s WALL (  147079 calls)
     add_vuspsi   :      7.20s CPU      7.40s WALL (  147079 calls)

     General routines
     calbec       :     17.77s CPU     18.21s WALL (  230351 calls)
     fft          :      7.80s CPU      9.23s WALL (    9206 calls)
     ffts         :      0.43s CPU      0.47s WALL (    1201 calls)
     fftw         :    216.87s CPU    221.89s WALL ( 3771868 calls)
     interpolate  :      0.93s CPU      1.09s WALL (     614 calls)
     davcio       :      0.00s CPU      0.21s WALL (      56 calls)

     Parallel routines

     PWSCF        :    696.25s CPU    731.77s WALL


   This run was terminated on:  15:31:52  25Oct2025            

=------------------------------------------------------------------------------=
   JOB DONE.
=------------------------------------------------------------------------------=
