
     Program PWSCF v.7.4 starts on 25Oct2025 at 15:15:15 

     This program is part of the open-source Quantum ESPRESSO suite
     for quantum simulation of materials; please cite
         "P. Giannozzi et al., J. Phys.:Condens. Matter 21 395502 (2009);
         "P. Giannozzi et al., J. Phys.:Condens. Matter 29 465901 (2017);
         "P. Giannozzi et al., J. Chem. Phys. 152 154105 (2020);
          URL http://www.quantum-espresso.org", 
     in publications or presentations arising from this work. More details at
     http://www.quantum-espresso.org/quote

     Parallel version (MPI & OpenMP), running on       8 processor cores
     Number of MPI processes:                 8
     Threads/MPI process:                     1

     MPI processes distributed on     1 nodes
     218577 MiB available memory on the printing compute node when the environment starts

     Reading input from TiFe_relaxed0.in

     Current dimensions of program PWSCF are:
     Max number of different atomic species (ntypx) = 10
     Max number of k-points (npk) =  40000
     Max angular momentum in pseudopotentials (lmaxx) =  4
     file Fe.pbe-spn-kjpaw_psl.0.2.1.UPF: wavefunction(s)  3D renormalized

     IMPORTANT: XC functional enforced from input :
     Exchange-correlation= PBE
                           (   1   4   3   4   0   0   0)
     Any further DFT definition will be discarded
     Please, verify this is what you really want

     Message from routine setup:
     using ibrav=0 with symmetry is DISCOURAGED, use correct ibrav instead

     R & G space division:  proc/nbgrp/npool/nimage =       8
     Subspace diagonalization in iterative solution of the eigenvalue problem:
     a serial algorithm will be used


     Parallelization info
     --------------------
     sticks:   dense  smooth     PW     G-vecs:    dense   smooth      PW
     Min         532     151     43                26154     3989     617
     Max         533     152     44                26155     3993     620
     Sum        4257    1209    349               209233    31919    4945

     Using Slab Decomposition



     bravais-lattice index     =            0
     lattice parameter (alat)  =       5.5533  a.u.
     unit-cell volume          =     171.2590 (a.u.)^3
     number of atoms/cell      =            2
     number of atomic types    =            2
     number of electrons       =        28.00
     number of Kohn-Sham states=           18
     kinetic-energy cutoff     =     124.0000  Ry
     charge density cutoff     =    1736.0000  Ry
     scf convergence threshold =      1.0E-08
     mixing beta               =       0.7000
     number of iterations used =            8  plain     mixing
     energy convergence thresh.=      1.0E-04
     force convergence thresh. =      1.0E-03
     press convergence thresh. =      5.0E-01
     Exchange-correlation= PBE
                           (   1   4   3   4   0   0   0)
     nstep                     =           50


     celldm(1)=   5.553300  celldm(2)=   0.000000  celldm(3)=   0.000000
     celldm(4)=   0.000000  celldm(5)=   0.000000  celldm(6)=   0.000000

     crystal axes: (cart. coord. in units of alat)
               a(1) = (   1.000000   0.000000   0.000000 )  
               a(2) = (   0.000000   1.000000   0.000000 )  
               a(3) = (   0.000000   0.000000   1.000000 )  

     reciprocal axes: (cart. coord. in units 2 pi/alat)
               b(1) = (  1.000000  0.000000  0.000000 )  
               b(2) = (  0.000000  1.000000  0.000000 )  
               b(3) = (  0.000000  0.000000  1.000000 )  


     PseudoPot. # 1 for Fe read from file:
     ../../pseudos/Fe.pbe-spn-kjpaw_psl.0.2.1.UPF
     MD5 check sum: e86618425769142926afa95317d90200
     Pseudo is Projector augmented-wave + core cor, Zval = 16.0
     Generated using "atomic" code by A. Dal Corso  v.5.0.99 svn rev. 10869
     Shape of augmentation charge: PSQ
     Using radial grid of 1191 points,  6 beta functions with: 
                l(1) =   0
                l(2) =   0
                l(3) =   1
                l(4) =   1
                l(5) =   2
                l(6) =   2
     Q(r) pseudized with 0 coefficients 


     PseudoPot. # 2 for Ti read from file:
     ../../pseudos/ti_pbe_v1.4.uspp.F.UPF
     MD5 check sum: 88a00a6731bd790ddea75d31a80cb452
     Pseudo is Ultrasoft + core correction, Zval = 12.0
     Generated by new atomic code, or converted to UPF format
     Using radial grid of  851 points,  6 beta functions with: 
                l(1) =   0
                l(2) =   0
                l(3) =   1
                l(4) =   1
                l(5) =   2
                l(6) =   2
     Q(r) pseudized with  6 coefficients,  rinner =    1.000   1.000   1.000
                                                       1.000   1.000

     atomic species   valence    mass     pseudopotential
     Fe               16.00    55.84500     Fe( 1.00)
     Ti               12.00    47.86700     Ti( 1.00)

     48 Sym. Ops., with inversion, found



   Cartesian axes

     site n.     atom                  positions (alat units)
         1        Fe     tau(   1) = (   0.5000000   0.5000000   0.5000000  )
         2        Ti     tau(   2) = (   0.0000000   0.0000000   0.0000000  )

     number of k points=    56  Marzari-Vanderbilt smearing, width (Ry)=  0.0050
                       cart. coord. in units 2pi/alat
        k(    1) = (   0.0000000   0.0000000   0.0000000), wk =   0.0015026
        k(    2) = (   0.0000000   0.0000000   0.0909091), wk =   0.0090158
        k(    3) = (   0.0000000   0.0000000   0.1818182), wk =   0.0090158
        k(    4) = (   0.0000000   0.0000000   0.2727273), wk =   0.0090158
        k(    5) = (   0.0000000   0.0000000   0.3636364), wk =   0.0090158
        k(    6) = (   0.0000000   0.0000000   0.4545455), wk =   0.0090158
        k(    7) = (   0.0000000   0.0909091   0.0909091), wk =   0.0180316
        k(    8) = (   0.0000000   0.0909091   0.1818182), wk =   0.0360631
        k(    9) = (   0.0000000   0.0909091   0.2727273), wk =   0.0360631
        k(   10) = (   0.0000000   0.0909091   0.3636364), wk =   0.0360631
        k(   11) = (   0.0000000   0.0909091   0.4545455), wk =   0.0360631
        k(   12) = (   0.0000000   0.1818182   0.1818182), wk =   0.0180316
        k(   13) = (   0.0000000   0.1818182   0.2727273), wk =   0.0360631
        k(   14) = (   0.0000000   0.1818182   0.3636364), wk =   0.0360631
        k(   15) = (   0.0000000   0.1818182   0.4545455), wk =   0.0360631
        k(   16) = (   0.0000000   0.2727273   0.2727273), wk =   0.0180316
        k(   17) = (   0.0000000   0.2727273   0.3636364), wk =   0.0360631
        k(   18) = (   0.0000000   0.2727273   0.4545455), wk =   0.0360631
        k(   19) = (   0.0000000   0.3636364   0.3636364), wk =   0.0180316
        k(   20) = (   0.0000000   0.3636364   0.4545455), wk =   0.0360631
        k(   21) = (   0.0000000   0.4545455   0.4545455), wk =   0.0180316
        k(   22) = (   0.0909091   0.0909091   0.0909091), wk =   0.0120210
        k(   23) = (   0.0909091   0.0909091   0.1818182), wk =   0.0360631
        k(   24) = (   0.0909091   0.0909091   0.2727273), wk =   0.0360631
        k(   25) = (   0.0909091   0.0909091   0.3636364), wk =   0.0360631
        k(   26) = (   0.0909091   0.0909091   0.4545455), wk =   0.0360631
        k(   27) = (   0.0909091   0.1818182   0.1818182), wk =   0.0360631
        k(   28) = (   0.0909091   0.1818182   0.2727273), wk =   0.0721262
        k(   29) = (   0.0909091   0.1818182   0.3636364), wk =   0.0721262
        k(   30) = (   0.0909091   0.1818182   0.4545455), wk =   0.0721262
        k(   31) = (   0.0909091   0.2727273   0.2727273), wk =   0.0360631
        k(   32) = (   0.0909091   0.2727273   0.3636364), wk =   0.0721262
        k(   33) = (   0.0909091   0.2727273   0.4545455), wk =   0.0721262
        k(   34) = (   0.0909091   0.3636364   0.3636364), wk =   0.0360631
        k(   35) = (   0.0909091   0.3636364   0.4545455), wk =   0.0721262
        k(   36) = (   0.0909091   0.4545455   0.4545455), wk =   0.0360631
        k(   37) = (   0.1818182   0.1818182   0.1818182), wk =   0.0120210
        k(   38) = (   0.1818182   0.1818182   0.2727273), wk =   0.0360631
        k(   39) = (   0.1818182   0.1818182   0.3636364), wk =   0.0360631
        k(   40) = (   0.1818182   0.1818182   0.4545455), wk =   0.0360631
        k(   41) = (   0.1818182   0.2727273   0.2727273), wk =   0.0360631
        k(   42) = (   0.1818182   0.2727273   0.3636364), wk =   0.0721262
        k(   43) = (   0.1818182   0.2727273   0.4545455), wk =   0.0721262
        k(   44) = (   0.1818182   0.3636364   0.3636364), wk =   0.0360631
        k(   45) = (   0.1818182   0.3636364   0.4545455), wk =   0.0721262
        k(   46) = (   0.1818182   0.4545455   0.4545455), wk =   0.0360631
        k(   47) = (   0.2727273   0.2727273   0.2727273), wk =   0.0120210
        k(   48) = (   0.2727273   0.2727273   0.3636364), wk =   0.0360631
        k(   49) = (   0.2727273   0.2727273   0.4545455), wk =   0.0360631
        k(   50) = (   0.2727273   0.3636364   0.3636364), wk =   0.0360631
        k(   51) = (   0.2727273   0.3636364   0.4545455), wk =   0.0721262
        k(   52) = (   0.2727273   0.4545455   0.4545455), wk =   0.0360631
        k(   53) = (   0.3636364   0.3636364   0.3636364), wk =   0.0120210
        k(   54) = (   0.3636364   0.3636364   0.4545455), wk =   0.0360631
        k(   55) = (   0.3636364   0.4545455   0.4545455), wk =   0.0360631
        k(   56) = (   0.4545455   0.4545455   0.4545455), wk =   0.0120210

     Dense  grid:   209233 G-vectors     FFT dimensions: (  75,  75,  75)

     Smooth grid:    31919 G-vectors     FFT dimensions: (  40,  40,  40)

     Estimated max dynamical RAM per process >     117.03 MB

     Estimated total dynamical RAM >     936.25 MB

     Check: negative core charge=   -0.000002

     Initial potential from superposition of free atoms

     starting charge      26.9995, renormalised to      28.0000

     negative rho (up, down):  1.347E-03 0.000E+00
     Starting wfcs are   23 randomized atomic wfcs
     Checking if some PAW data can be deallocated... 

     total cpu time spent up to now is        2.0 secs

     per-process dynamical memory:   142.7 Mb

     Self-consistent Calculation

     iteration #  1     ecut=   124.00 Ry     beta= 0.70
     Davidson diagonalization with overlap
     ethr =  1.00E-02,  avg # of iterations =  2.1

     negative rho (up, down):  7.937E-05 0.000E+00

     total cpu time spent up to now is        3.0 secs

     total energy              =    -434.89047275 Ry
     estimated scf accuracy    <      17.46535633 Ry

     iteration #  2     ecut=   124.00 Ry     beta= 0.70
     Davidson diagonalization with overlap
     ethr =  1.00E-02,  avg # of iterations =  6.0

     negative rho (up, down):  2.353E-05 0.000E+00

     total cpu time spent up to now is        4.6 secs

     total energy              =    -448.51249463 Ry
     estimated scf accuracy    <      66.10195194 Ry

     iteration #  3     ecut=   124.00 Ry     beta= 0.70
     Davidson diagonalization with overlap
     ethr =  1.00E-02,  avg # of iterations =  3.1

     negative rho (up, down):  2.377E-04 0.000E+00

     total cpu time spent up to now is        5.7 secs

     total energy              =    -448.59203340 Ry
     estimated scf accuracy    <      16.77106202 Ry

     iteration #  4     ecut=   124.00 Ry     beta= 0.70
     Davidson diagonalization with overlap
     ethr =  1.00E-02,  avg # of iterations =  2.2

     negative rho (up, down):  2.766E-04 0.000E+00

     total cpu time spent up to now is        6.7 secs

     total energy              =    -449.11252552 Ry
     estimated scf accuracy    <       4.68111793 Ry

     iteration #  5     ecut=   124.00 Ry     beta= 0.70
     Davidson diagonalization with overlap
     ethr =  1.00E-02,  avg # of iterations =  1.0

     negative rho (up, down):  3.285E-04 0.000E+00

     total cpu time spent up to now is        7.6 secs

     total energy              =    -449.11683000 Ry
     estimated scf accuracy    <       4.27451567 Ry

     iteration #  6     ecut=   124.00 Ry     beta= 0.70
     Davidson diagonalization with overlap
     ethr =  1.00E-02,  avg # of iterations =  1.0

     negative rho (up, down):  1.118E-03 0.000E+00

     total cpu time spent up to now is        8.5 secs

     total energy              =    -447.89068457 Ry
     estimated scf accuracy    <       4.50163493 Ry

     iteration #  7     ecut=   124.00 Ry     beta= 0.70
     Davidson diagonalization with overlap
     ethr =  1.00E-02,  avg # of iterations =  3.4

     negative rho (up, down):  1.015E-03 0.000E+00

     total cpu time spent up to now is        9.5 secs

     total energy              =    -448.58840447 Ry
     estimated scf accuracy    <       3.89651472 Ry

     iteration #  8     ecut=   124.00 Ry     beta= 0.70
     Davidson diagonalization with overlap
     ethr =  1.00E-02,  avg # of iterations =  1.0

     negative rho (up, down):  7.976E-04 0.000E+00

     total cpu time spent up to now is       10.4 secs

     total energy              =    -448.43997417 Ry
     estimated scf accuracy    <       1.27715295 Ry

     iteration #  9     ecut=   124.00 Ry     beta= 0.70
     Davidson diagonalization with overlap
     ethr =  4.56E-03,  avg # of iterations =  1.9

     negative rho (up, down):  7.977E-04 0.000E+00

     total cpu time spent up to now is       11.3 secs

     total energy              =    -448.60539805 Ry
     estimated scf accuracy    <       0.26863249 Ry

     iteration # 10     ecut=   124.00 Ry     beta= 0.70
     Davidson diagonalization with overlap
     ethr =  9.59E-04,  avg # of iterations =  1.3

     negative rho (up, down):  8.075E-04 0.000E+00

     total cpu time spent up to now is       12.2 secs

     total energy              =    -448.61289738 Ry
     estimated scf accuracy    <       0.28159432 Ry

     iteration # 11     ecut=   124.00 Ry     beta= 0.70
     Davidson diagonalization with overlap
     ethr =  9.59E-04,  avg # of iterations =  1.0

     negative rho (up, down):  7.617E-04 0.000E+00

     total cpu time spent up to now is       13.1 secs

     total energy              =    -448.67957078 Ry
     estimated scf accuracy    <       0.34549008 Ry

     iteration # 12     ecut=   124.00 Ry     beta= 0.70
     Davidson diagonalization with overlap
     ethr =  9.59E-04,  avg # of iterations =  1.8

     negative rho (up, down):  7.932E-04 0.000E+00

     total cpu time spent up to now is       14.0 secs

     total energy              =    -448.62277485 Ry
     estimated scf accuracy    <       1.28404054 Ry

     iteration # 13     ecut=   124.00 Ry     beta= 0.70
     Davidson diagonalization with overlap
     ethr =  9.59E-04,  avg # of iterations =  1.2

     negative rho (up, down):  9.274E-04 0.000E+00

     total cpu time spent up to now is       14.9 secs

     total energy              =    -448.63537755 Ry
     estimated scf accuracy    <       0.58154385 Ry

     iteration # 14     ecut=   124.00 Ry     beta= 0.70
     Davidson diagonalization with overlap
     ethr =  9.59E-04,  avg # of iterations =  1.0

     negative rho (up, down):  1.025E-03 0.000E+00

     total cpu time spent up to now is       15.8 secs

     total energy              =    -448.61055071 Ry
     estimated scf accuracy    <       0.50368914 Ry

     iteration # 15     ecut=   124.00 Ry     beta= 0.70
     Davidson diagonalization with overlap
     ethr =  9.59E-04,  avg # of iterations =  1.0

     negative rho (up, down):  1.032E-03 0.000E+00

     total cpu time spent up to now is       16.7 secs

     total energy              =    -448.61143942 Ry
     estimated scf accuracy    <       0.31963621 Ry

     iteration # 16     ecut=   124.00 Ry     beta= 0.70
     Davidson diagonalization with overlap
     ethr =  9.59E-04,  avg # of iterations =  1.0

     negative rho (up, down):  1.077E-03 0.000E+00

     total cpu time spent up to now is       17.6 secs

     total energy              =    -448.59313187 Ry
     estimated scf accuracy    <       0.28283031 Ry

     iteration # 17     ecut=   124.00 Ry     beta= 0.70
     Davidson diagonalization with overlap
     ethr =  9.59E-04,  avg # of iterations =  1.0

     negative rho (up, down):  1.074E-03 0.000E+00

     total cpu time spent up to now is       18.5 secs

     total energy              =    -448.60188466 Ry
     estimated scf accuracy    <       0.07727334 Ry

     iteration # 18     ecut=   124.00 Ry     beta= 0.70
     Davidson diagonalization with overlap
     ethr =  2.76E-04,  avg # of iterations =  1.6

     negative rho (up, down):  9.925E-04 0.000E+00

     total cpu time spent up to now is       19.4 secs

     total energy              =    -448.58361171 Ry
     estimated scf accuracy    <       0.14906512 Ry

     iteration # 19     ecut=   124.00 Ry     beta= 0.70
     Davidson diagonalization with overlap
     ethr =  2.76E-04,  avg # of iterations =  1.1

     negative rho (up, down):  9.436E-04 0.000E+00

     total cpu time spent up to now is       20.3 secs

     total energy              =    -448.59412596 Ry
     estimated scf accuracy    <       0.04848602 Ry

     iteration # 20     ecut=   124.00 Ry     beta= 0.70
     Davidson diagonalization with overlap
     ethr =  1.73E-04,  avg # of iterations =  1.1

     negative rho (up, down):  1.023E-03 0.000E+00

     total cpu time spent up to now is       21.2 secs

     total energy              =    -448.57755582 Ry
     estimated scf accuracy    <       0.17402918 Ry

     iteration # 21     ecut=   124.00 Ry     beta= 0.70
     Davidson diagonalization with overlap
     ethr =  1.73E-04,  avg # of iterations =  2.1

     negative rho (up, down):  1.012E-03 0.000E+00

     total cpu time spent up to now is       22.1 secs

     total energy              =    -448.58650556 Ry
     estimated scf accuracy    <       0.00384583 Ry

     iteration # 22     ecut=   124.00 Ry     beta= 0.70
     Davidson diagonalization with overlap
     ethr =  1.37E-05,  avg # of iterations =  4.6

     negative rho (up, down):  1.004E-03 0.000E+00

     total cpu time spent up to now is       23.2 secs

     total energy              =    -448.58691254 Ry
     estimated scf accuracy    <       0.00198474 Ry

     iteration # 23     ecut=   124.00 Ry     beta= 0.70
     Davidson diagonalization with overlap
     ethr =  7.09E-06,  avg # of iterations =  1.5

     negative rho (up, down):  1.006E-03 0.000E+00

     total cpu time spent up to now is       24.1 secs

     total energy              =    -448.58700272 Ry
     estimated scf accuracy    <       0.00176934 Ry

     iteration # 24     ecut=   124.00 Ry     beta= 0.70
     Davidson diagonalization with overlap
     ethr =  6.32E-06,  avg # of iterations =  1.0

     negative rho (up, down):  9.532E-04 0.000E+00

     total cpu time spent up to now is       24.9 secs

     total energy              =    -448.58622430 Ry
     estimated scf accuracy    <       0.00189335 Ry

     iteration # 25     ecut=   124.00 Ry     beta= 0.70
     Davidson diagonalization with overlap
     ethr =  6.32E-06,  avg # of iterations =  2.5

     negative rho (up, down):  9.519E-04 0.000E+00

     total cpu time spent up to now is       26.0 secs

     total energy              =    -448.58664002 Ry
     estimated scf accuracy    <       0.00120785 Ry

     iteration # 26     ecut=   124.00 Ry     beta= 0.70
     Davidson diagonalization with overlap
     ethr =  4.31E-06,  avg # of iterations =  1.0

     negative rho (up, down):  9.350E-04 0.000E+00

     total cpu time spent up to now is       26.9 secs

     total energy              =    -448.58685540 Ry
     estimated scf accuracy    <       0.00115498 Ry

     iteration # 27     ecut=   124.00 Ry     beta= 0.70
     Davidson diagonalization with overlap
     ethr =  4.12E-06,  avg # of iterations =  2.0

     negative rho (up, down):  9.665E-04 0.000E+00

     total cpu time spent up to now is       27.8 secs

     total energy              =    -448.58628946 Ry
     estimated scf accuracy    <       0.00358736 Ry

     iteration # 28     ecut=   124.00 Ry     beta= 0.70
     Davidson diagonalization with overlap
     ethr =  4.12E-06,  avg # of iterations =  2.0

     negative rho (up, down):  9.722E-04 0.000E+00

     total cpu time spent up to now is       28.7 secs

     total energy              =    -448.58652077 Ry
     estimated scf accuracy    <       0.00004729 Ry

     iteration # 29     ecut=   124.00 Ry     beta= 0.70
     Davidson diagonalization with overlap
     ethr =  1.69E-07,  avg # of iterations =  4.7

     negative rho (up, down):  9.640E-04 0.000E+00

     total cpu time spent up to now is       29.9 secs

     total energy              =    -448.58653251 Ry
     estimated scf accuracy    <       0.00024121 Ry

     iteration # 30     ecut=   124.00 Ry     beta= 0.70
     Davidson diagonalization with overlap
     ethr =  1.69E-07,  avg # of iterations =  3.8

     negative rho (up, down):  9.643E-04 0.000E+00

     total cpu time spent up to now is       31.0 secs

     total energy              =    -448.58655217 Ry
     estimated scf accuracy    <       0.00000018 Ry

     iteration # 31     ecut=   124.00 Ry     beta= 0.70
     Davidson diagonalization with overlap
     ethr =  6.52E-10,  avg # of iterations =  5.9

     negative rho (up, down):  9.640E-04 0.000E+00

     total cpu time spent up to now is       32.4 secs

     total energy              =    -448.58655245 Ry
     estimated scf accuracy    <       0.00000124 Ry

     iteration # 32     ecut=   124.00 Ry     beta= 0.70
     Davidson diagonalization with overlap
     ethr =  6.52E-10,  avg # of iterations =  4.0

     negative rho (up, down):  9.638E-04 0.000E+00

     total cpu time spent up to now is       33.4 secs

     total energy              =    -448.58655251 Ry
     estimated scf accuracy    <       0.00000015 Ry

     iteration # 33     ecut=   124.00 Ry     beta= 0.70
     Davidson diagonalization with overlap
     ethr =  5.50E-10,  avg # of iterations =  2.0

     negative rho (up, down):  9.641E-04 0.000E+00

     total cpu time spent up to now is       34.4 secs

     total energy              =    -448.58655246 Ry
     estimated scf accuracy    <       0.00000035 Ry

     iteration # 34     ecut=   124.00 Ry     beta= 0.70
     Davidson diagonalization with overlap
     ethr =  5.50E-10,  avg # of iterations =  2.3

     negative rho (up, down):  9.642E-04 0.000E+00

     total cpu time spent up to now is       35.3 secs

     total energy              =    -448.58655249 Ry
     estimated scf accuracy    <       0.00000002 Ry

     iteration # 35     ecut=   124.00 Ry     beta= 0.70
     Davidson diagonalization with overlap
     ethr =  7.32E-11,  avg # of iterations =  3.8

     negative rho (up, down):  9.641E-04 0.000E+00

     total cpu time spent up to now is       36.4 secs

     total energy              =    -448.58655249 Ry
     estimated scf accuracy    <       0.00000003 Ry

     iteration # 36     ecut=   124.00 Ry     beta= 0.70
     Davidson diagonalization with overlap
     ethr =  7.32E-11,  avg # of iterations =  2.8

     negative rho (up, down):  9.642E-04 0.000E+00

     total cpu time spent up to now is       37.3 secs

     End of self-consistent calculation

          k = 0.0000 0.0000 0.0000 (  3911 PWs)   bands (ev):

   -69.2103 -39.1517 -35.2713 -35.2713 -35.2713 -15.2460 -15.2460 -15.2460
    10.1528  13.8639  13.8639  16.6568  16.6568  16.6568  18.9983  18.9983
    20.9366  20.9366

          k = 0.0000 0.0000 0.0909 (  3947 PWs)   bands (ev):

   -69.2100 -39.1496 -35.2739 -35.2710 -35.2710 -15.2752 -15.2442 -15.2442
    10.3257  13.9470  13.9536  16.6441  16.6441  16.6947  18.8927  19.0380
    20.6858  20.6858

          k = 0.0000 0.0000 0.1818 (  3964 PWs)   bands (ev):

   -69.2093 -39.1439 -35.2806 -35.2699 -35.2699 -15.3532 -15.2395 -15.2395
    10.8272  14.1866  14.1906  16.6148  16.6148  16.8008  18.5875  19.1279
    20.1022  20.1022

          k = 0.0000 0.0000 0.2727 (  3988 PWs)   bands (ev):

   -69.2083 -39.1364 -35.2894 -35.2686 -35.2686 -15.4540 -15.2334 -15.2334
    11.6057  14.4523  14.5738  16.5899  16.5899  16.9516  18.1202  19.1616
    19.4564  19.4564

          k = 0.0000 0.0000 0.3636 (  4008 PWs)   bands (ev):

   -69.2074 -39.1296 -35.2974 -35.2674 -35.2674 -15.5455 -15.2277 -15.2277
    12.5660  14.5652  15.0485  16.5850  16.5850  17.1052  17.5653  18.9275
    18.9275  18.9715

          k = 0.0000 0.0000 0.4545 (  3992 PWs)   bands (ev):

   -69.2069 -39.1255 -35.3021 -35.2666 -35.2666 -15.5993 -15.2243 -15.2243
    13.5347  14.3044  15.4744  16.5939  16.5939  17.0903  17.2053  18.6282
    18.6282  18.6588

          k = 0.0000 0.0909 0.0909 (  3966 PWs)   bands (ev):

   -69.2097 -39.1473 -35.2748 -35.2724 -35.2706 -15.2763 -15.2701 -15.2424
    10.4951  14.0265  14.0436  16.5617  16.6235  16.7909  18.8775  19.0087
    20.4104  20.4353

          k = 0.0000 0.0909 0.1818 (  3978 PWs)   bands (ev):

   -69.2090 -39.1413 -35.2811 -35.2724 -35.2696 -15.3507 -15.2674 -15.2375
    10.9856  14.2440  14.2906  16.4813  16.5732  16.9084  18.6426  19.0872
    19.8667  19.9001

          k = 0.0000 0.0909 0.2727 (  3995 PWs)   bands (ev):

   -69.2080 -39.1334 -35.2900 -35.2716 -35.2682 -15.4505 -15.2605 -15.2310
    11.7434  14.5128  14.6445  16.4377  16.5167  16.9935  18.2447  19.0577
    19.3653  19.4002

          k = 0.0000 0.0909 0.3636 (  3991 PWs)   bands (ev):

   -69.2071 -39.1261 -35.2982 -35.2709 -35.2670 -15.5410 -15.2540 -15.2251
    12.6707  14.6170  15.0808  16.4435  16.4656  16.9997  17.7899  18.6460
    19.0665  19.2133

          k = 0.0000 0.0909 0.4545 (  3999 PWs)   bands (ev):

   -69.2066 -39.1218 -35.3030 -35.2704 -35.2663 -15.5943 -15.2502 -15.2216
    13.5943  14.3519  15.4692  16.3968  16.4805  16.9451  17.4633  18.3527
    18.9324  19.0197

          k = 0.0000 0.1818 0.1818 (  3972 PWs)   bands (ev):

   -69.2083 -39.1343 -35.2840 -35.2772 -35.2686 -15.3518 -15.3342 -15.2320
    11.4401  14.3900  14.5687  16.3070  16.4778  16.9857  18.6949  19.0459
    19.3497  19.5759

          k = 0.0000 0.1818 0.2727 (  4003 PWs)   bands (ev):

   -69.2073 -39.1252 -35.2920 -35.2794 -35.2673 -15.4412 -15.3324 -15.2248
    12.1275  14.5565  14.9462  16.1858  16.3868  16.9101  18.5209  18.8014
    19.2048  19.3971

          k = 0.0000 0.1818 0.3636 (  3997 PWs)   bands (ev):

   -69.2064 -39.1168 -35.3004 -35.2802 -35.2661 -15.5290 -15.3241 -15.2182
    12.9354  14.5943  15.3322  16.1499  16.3572  16.7002  18.2182  18.4617
    19.3303  19.4171

          k = 0.0000 0.1818 0.4545 (  3990 PWs)   bands (ev):

   -69.2059 -39.1118 -35.3055 -35.2806 -35.2654 -15.5808 -15.3190 -15.2143
    13.6841  14.3630  15.6125  16.2009  16.3901  16.4819  18.0481  18.2166
    19.3519  19.5140

          k = 0.0000 0.2727 0.2727 (  4000 PWs)   bands (ev):

   -69.2063 -39.1144 -35.2962 -35.2880 -35.2661 -15.4376 -15.4171 -15.2167
    12.6688  14.5348  15.3963  15.9775  16.3399  16.6425  18.5789  18.7502
    19.1053  19.5704

          k = 0.0000 0.2727 0.3636 (  3993 PWs)   bands (ev):

   -69.2054 -39.1045 -35.3035 -35.2923 -35.2649 -15.5134 -15.4148 -15.2091
    13.2266  14.4166  15.8407  15.8678  16.3180  16.4951  18.3958  18.7292
    19.2749  19.8465

          k = 0.0000 0.2727 0.4545 (  3996 PWs)   bands (ev):

   -69.2049 -39.0986 -35.3088 -35.2939 -35.2643 -15.5632 -15.4082 -15.2047
    13.6460  14.2282  15.8808  16.0551  16.0845  16.8466  18.1510  18.6845
    19.4869  20.0942

          k = 0.0000 0.3636 0.3636 (  4002 PWs)   bands (ev):

   -69.2046 -39.0932 -35.3073 -35.3025 -35.2639 -15.5040 -15.4922 -15.2008
    13.4198  14.2078  15.6811  15.9708  16.4456  16.8939  18.5222  19.0881
    19.1103  20.2512

          k = 0.0000 0.3636 0.4545 (  3999 PWs)   bands (ev):

   -69.2041 -39.0865 -35.3119 -35.3062 -35.2632 -15.5469 -15.4893 -15.1958
    13.5039  14.0682  15.6294  15.7309  16.8140  17.5391  18.2827  19.1483
    19.3230  20.5545

          k = 0.0000 0.4545 0.4545 (  3998 PWs)   bands (ev):

   -69.2035 -39.0793 -35.3139 -35.3133 -35.2626 -15.5379 -15.5363 -15.1906
    13.3946  13.9723  15.5085  15.5425  17.5106  17.9878  18.6670  18.8520
    19.4119  20.8262

          k = 0.0909 0.0909 0.0909 (  3959 PWs)   bands (ev):

   -69.2095 -39.1450 -35.2744 -35.2744 -35.2711 -15.2768 -15.2683 -15.2683
    10.6615  14.1185  14.1185  16.5391  16.5391  16.8681  18.9295  18.9295
    19.9929  20.6652

          k = 0.0909 0.0909 0.1818 (  3966 PWs)   bands (ev):

   -69.2087 -39.1386 -35.2813 -35.2733 -35.2710 -15.3482 -15.2670 -15.2635
    11.1426  14.3361  14.3554  16.4287  16.4796  16.9503  18.7012  19.0493
    19.5188  20.0789

          k = 0.0909 0.0909 0.2727 (  3992 PWs)   bands (ev):

   -69.2077 -39.1303 -35.2905 -35.2720 -35.2707 -15.4470 -15.2590 -15.2572
    11.8826  14.6168  14.6736  16.3700  16.3987  16.9454  18.3564  19.0006
    19.3237  19.4428

          k = 0.0909 0.0909 0.3636 (  3994 PWs)   bands (ev):

   -69.2069 -39.1227 -35.2989 -35.2707 -35.2704 -15.5367 -15.2515 -15.2514
    12.7810  14.7008  15.0813  16.2989  16.4005  16.8595  17.9712  18.7163
    18.9369  19.4203

          k = 0.0909 0.0909 0.4545 (  4007 PWs)   bands (ev):

   -69.2063 -39.1181 -35.3038 -35.2702 -35.2699 -15.5895 -15.2480 -15.2470
    13.6656  14.4197  15.4383  16.1745  16.5156  16.7699  17.6949  18.4315
    18.6598  19.5237

          k = 0.0909 0.1818 0.1818 (  3984 PWs)   bands (ev):

   -69.2080 -39.1314 -35.2836 -35.2780 -35.2712 -15.3485 -15.3323 -15.2593
    11.5926  14.4938  14.6188  16.2700  16.3702  16.9131  18.7644  19.0172
    19.2359  19.7949

          k = 0.0909 0.1818 0.2727 (  3994 PWs)   bands (ev):

   -69.2070 -39.1221 -35.2920 -35.2795 -35.2705 -15.4379 -15.3300 -15.2517
    12.2705  14.6757  14.9647  16.1421  16.2715  16.7315  18.6110  18.9229
    19.2408  19.4560

          k = 0.0909 0.1818 0.3636 (  4001 PWs)   bands (ev):

   -69.2061 -39.1134 -35.3007 -35.2800 -35.2697 -15.5252 -15.3216 -15.2446
    13.0616  14.7215  15.2859  16.0686  16.2634  16.5479  18.3725  18.5771
    19.1013  19.7200

          k = 0.0909 0.1818 0.4545 (  3993 PWs)   bands (ev):

   -69.2056 -39.1083 -35.3060 -35.2802 -35.2692 -15.5767 -15.3165 -15.2403
    13.7875  14.4740  15.5175  16.0018  16.3647  16.4909  18.1992  18.2872
    18.8992  20.1084

          k = 0.0909 0.2727 0.2727 (  3989 PWs)   bands (ev):

   -69.2061 -39.1113 -35.2957 -35.2883 -35.2695 -15.4338 -15.4152 -15.2433
    12.8158  14.6587  15.4058  15.9390  16.2101  16.4306  18.6963  18.9064
    19.0874  19.7048

          k = 0.0909 0.2727 0.3636 (  3985 PWs)   bands (ev):

   -69.2052 -39.1013 -35.3033 -35.2922 -35.2686 -15.5102 -15.4124 -15.2356
    13.3704  14.5419  15.7742  15.8302  16.2030  16.3600  18.4781  18.8194
    19.1583  20.1173

          k = 0.0909 0.2727 0.4545 (  4006 PWs)   bands (ev):

   -69.2047 -39.0954 -35.3089 -35.2935 -35.2680 -15.5599 -15.4059 -15.2309
    13.7756  14.3545  15.7972  15.8477  16.1550  16.7541  18.1884  18.7888
    19.0873  20.6003

          k = 0.0909 0.3636 0.3636 (  3992 PWs)   bands (ev):

   -69.2043 -39.0901 -35.3068 -35.3024 -35.2675 -15.5010 -15.4902 -15.2272
    13.5656  14.3325  15.6507  15.8817  16.4032  16.7209  18.4860  18.9868
    19.1887  20.5637

          k = 0.0909 0.3636 0.4545 (  4002 PWs)   bands (ev):

   -69.2038 -39.0835 -35.3116 -35.3057 -35.2669 -15.5444 -15.4872 -15.2223
    13.6402  14.1966  15.5970  15.6797  16.7391  17.3611  18.2404  18.9495
    19.2816  20.7958

          k = 0.0909 0.4545 0.4545 (  3993 PWs)   bands (ev):

   -69.2033 -39.0764 -35.3134 -35.3128 -35.2662 -15.5359 -15.5344 -15.2171
    13.5314  14.1009  15.4861  15.5157  17.4523  17.8446  18.4160  18.5135
    19.4900  21.0194

          k = 0.1818 0.1818 0.1818 (  3989 PWs)   bands (ev):

   -69.2072 -39.1238 -35.2825 -35.2825 -35.2757 -15.3446 -15.3274 -15.3274
    12.0266  14.7610  14.7610  16.1713  16.1713  16.6504  18.9329  18.9329
    19.2930  20.0375

          k = 0.1818 0.1818 0.2727 (  3992 PWs)   bands (ev):

   -69.2063 -39.1137 -35.2922 -35.2810 -35.2777 -15.4290 -15.3257 -15.3208
    12.6697  14.9702  15.0333  16.0341  16.0388  16.3368  18.8050  19.0078
    19.4274  19.5989

          k = 0.1818 0.1818 0.3636 (  3994 PWs)   bands (ev):

   -69.2054 -39.1044 -35.3017 -35.2796 -35.2790 -15.5149 -15.3149 -15.3148
    13.3929  15.0074  15.2036  15.8991  16.0682  16.2650  18.6704  18.7433
    18.9524  20.1601

          k = 0.1818 0.1818 0.4545 (  3986 PWs)   bands (ev):

   -69.2049 -39.0989 -35.3073 -35.2797 -35.2788 -15.5656 -15.3112 -15.3084
    14.0172  14.6821  15.3921  15.7788  16.1845  16.4450  18.3322  18.5953
    18.6807  20.5299

          k = 0.1818 0.2727 0.2727 (  3994 PWs)   bands (ev):

   -69.2053 -39.1027 -35.2945 -35.2893 -35.2787 -15.4236 -15.4100 -15.3143
    13.2274  14.9964  15.4273  15.8397  15.9189  15.9976  18.8252  19.0096
    19.3285  20.0778

          k = 0.1818 0.2727 0.3636 (  3988 PWs)   bands (ev):

   -69.2045 -39.0926 -35.3031 -35.2918 -35.2783 -15.5016 -15.4059 -15.3060
    13.7701  14.8707  15.5750  15.7253  15.9737  16.0870  18.5906  18.8383
    19.2207  20.3803

          k = 0.1818 0.2727 0.4545 (  3991 PWs)   bands (ev):

   -69.2039 -39.0866 -35.3091 -35.2925 -35.2779 -15.5511 -15.3998 -15.3010
    14.1253  14.6660  15.5488  15.6706  16.0602  16.5356  18.2319  18.6757
    19.1298  20.6015

          k = 0.1818 0.3636 0.3636 (  3990 PWs)   bands (ev):

   -69.2036 -39.0817 -35.3055 -35.3023 -35.2773 -15.4928 -15.4851 -15.2978
    13.9820  14.6576  15.5747  15.6896  16.2719  16.2956  18.4622  18.6970
    19.4851  20.5436

          k = 0.1818 0.3636 0.4545 (  3993 PWs)   bands (ev):

   -69.2031 -39.0753 -35.3108 -35.3045 -35.2767 -15.5378 -15.4816 -15.2929
    14.0272  14.5323  15.5200  15.5675  16.4915  16.9250  18.1794  18.5402
    19.5617  20.7854

          k = 0.1818 0.4545 0.4545 (  4002 PWs)   bands (ev):

   -69.2026 -39.0685 -35.3120 -35.3116 -35.2760 -15.5303 -15.5293 -15.2880
    13.9234  14.4435  15.4329  15.4545  17.1746  17.2812  18.0690  18.2503
    19.7506  21.0766

          k = 0.2727 0.2727 0.2727 (  3998 PWs)   bands (ev):

   -69.2044 -39.0915 -35.2928 -35.2928 -35.2886 -15.4132 -15.4033 -15.4033
    13.7990  15.4441  15.4441  15.5182  15.7193  15.7193  18.8337  18.8337
    19.7984  19.7984

          k = 0.2727 0.2727 0.3636 (  3992 PWs)   bands (ev):

   -69.2035 -39.0812 -35.3030 -35.2913 -35.2908 -15.4904 -15.3973 -15.3971
    14.2965  15.1356  15.4426  15.6207  15.7209  15.9354  18.5785  18.6239
    19.6455  20.2948

          k = 0.2727 0.2727 0.4545 (  3990 PWs)   bands (ev):

   -69.2030 -39.0751 -35.3095 -35.2915 -35.2905 -15.5396 -15.3934 -15.3900
    14.5098  14.9115  15.4302  15.5701  15.9004  16.3710  18.1751  18.4970
    19.5915  20.6353

          k = 0.2727 0.3636 0.3636 (  3988 PWs)   bands (ev):

   -69.2027 -39.0707 -35.3037 -35.3021 -35.2902 -15.4821 -15.4783 -15.3891
    14.5958  15.0027  15.4918  15.5872  15.8170  16.0595  18.4143  18.4173
    19.9497  20.4947

          k = 0.2727 0.3636 0.4545 (  3992 PWs)   bands (ev):

   -69.2021 -39.0645 -35.3099 -35.3030 -35.2896 -15.5291 -15.4742 -15.3843
    14.5794  14.9171  15.4521  15.5076  16.1032  16.4659  18.0772  18.3313
    20.0121  20.8207

          k = 0.2727 0.4545 0.4545 (  4000 PWs)   bands (ev):

   -69.2016 -39.0581 -35.3102 -35.3100 -35.2888 -15.5231 -15.5225 -15.3799
    14.5067  14.8769  15.3854  15.4135  16.6254  16.6526  17.9060  18.1706
    20.1898  21.1137

          k = 0.3636 0.3636 0.3636 (  3999 PWs)   bands (ev):

   -69.2018 -39.0606 -35.3021 -35.3021 -35.3018 -15.4723 -15.4721 -15.4721
    14.9948  15.3300  15.4470  15.4470  15.8146  15.8146  18.2411  18.2411
    20.5003  20.5003

          k = 0.3636 0.3636 0.4545 (  4008 PWs)   bands (ev):

   -69.2013 -39.0545 -35.3090 -35.3018 -35.3012 -15.5211 -15.4684 -15.4664
    14.9932  15.1653  15.4767  15.6074  15.7984  16.1605  17.9824  18.1639
    20.5130  20.9127

          k = 0.3636 0.4545 0.4545 (  3994 PWs)   bands (ev):

   -69.2008 -39.0486 -35.3085 -35.3085 -35.3006 -15.5164 -15.5163 -15.4633
    15.1009  15.2496  15.3888  15.4963  16.0924  16.1437  17.8651  18.0301
    20.7354  21.1431

          k = 0.4545 0.4545 0.4545 (  3972 PWs)   bands (ev):

   -69.2003 -39.0430 -35.3076 -35.3075 -35.3075 -15.5126 -15.5126 -15.5122
    15.3317  15.4752  15.4752  15.7776  15.7776  15.8004  17.8552  17.8552
    21.1598  21.1598

     the Fermi energy is    17.5936 ev

!    total energy              =    -448.58655249 Ry
     estimated scf accuracy    <          4.6E-09 Ry
     smearing contrib. (-TS)   =       0.00005040 Ry
     internal energy E=F+TS    =    -448.58660289 Ry

     The total energy is F=E-TS. E is the sum of the following terms:
     one-electron contribution =    -151.34258880 Ry
     hartree contribution      =      91.61754585 Ry
     xc contribution           =     -52.88701341 Ry
     ewald contribution        =    -259.82070277 Ry
     one-center paw contrib.   =     -76.15384375 Ry

     convergence has been achieved in  36 iterations

     negative rho (up, down):  9.642E-04 0.000E+00

     Forces acting on atoms (cartesian axes, Ry/au):

     atom    1 type  1   force =     0.00000000    0.00000000    0.00000000
     atom    2 type  2   force =     0.00000000    0.00000000    0.00000000

     Total force =     0.000000     Total SCF correction =     0.000000


     Computing stress (Cartesian axis) and pressure


     negative rho (up, down):  9.642E-04 0.000E+00
          total   stress  (Ry/bohr**3)                   (kbar)     P=       31.33
   0.00021296   0.00000000   0.00000000           31.33        0.00        0.00
   0.00000000   0.00021296   0.00000000            0.00       31.33        0.00
   0.00000000   0.00000000   0.00021296            0.00        0.00       31.33


     BFGS Geometry Optimization
     Energy error            =      1.6E-02 Ry
     Gradient error          =      0.0E+00 Ry/Bohr
     Cell gradient error     =      1.7E+02 kbar

     number of scf cycles    =   1
     number of bfgs steps    =   0

     enthalpy           new  =    -448.7472696450 Ry

     new trust radius        =       0.0753401334 bohr
     new conv_thr            =       0.0000000100 Ry

     new unit-cell volume =    186.47802 a.u.^3 (    27.63319 Ang^3 )
     density =      6.23228 g/cm^3

CELL_PARAMETERS (alat=  5.55330037)
   1.028785226   0.000000000   0.000000000
   0.000000000   1.028785226   0.000000000
   0.000000000   0.000000000   1.028785226

ATOMIC_POSITIONS (crystal)
Fe               0.5000000000        0.5000000000        0.5000000000
Ti               0.0000000000        0.0000000000        0.0000000000



     Writing config-only to output data dir ./TiFe.save/ :
     XML data file
     NEW-OLD atomic charge density approx. for the potential
     New effective cutoffs (rho, wfc): 1640.09  117.15

     negative rho (up, down):  1.022E-03 0.000E+00

     total cpu time spent up to now is       39.4 secs

     per-process dynamical memory:   153.2 Mb

     Self-consistent Calculation

     iteration #  1     ecut=   124.00 Ry     beta= 0.70
     Davidson diagonalization with overlap
     ethr =  1.00E-06,  avg # of iterations =  8.2

     negative rho (up, down):  9.865E-04 0.000E+00

     total cpu time spent up to now is       41.2 secs

     total energy              =    -448.58010837 Ry
     estimated scf accuracy    <       0.00195000 Ry

     iteration #  2     ecut=   124.00 Ry     beta= 0.70
     Davidson diagonalization with overlap
     ethr =  6.96E-06,  avg # of iterations =  5.1

     negative rho (up, down):  9.665E-04 0.000E+00

     total cpu time spent up to now is       42.5 secs

     total energy              =    -448.57095094 Ry
     estimated scf accuracy    <       0.19124779 Ry

     iteration #  3     ecut=   124.00 Ry     beta= 0.70
     Davidson diagonalization with overlap
     ethr =  6.96E-06,  avg # of iterations =  4.8

     negative rho (up, down):  9.784E-04 0.000E+00

     total cpu time spent up to now is       43.7 secs

     total energy              =    -448.58139016 Ry
     estimated scf accuracy    <       0.00176817 Ry

     iteration #  4     ecut=   124.00 Ry     beta= 0.70
     Davidson diagonalization with overlap
     ethr =  6.31E-06,  avg # of iterations =  1.6

     negative rho (up, down):  9.766E-04 0.000E+00

     total cpu time spent up to now is       44.6 secs

     total energy              =    -448.58151370 Ry
     estimated scf accuracy    <       0.00025782 Ry

     iteration #  5     ecut=   124.00 Ry     beta= 0.70
     Davidson diagonalization with overlap
     ethr =  9.21E-07,  avg # of iterations =  3.6

     negative rho (up, down):  9.746E-04 0.000E+00

     total cpu time spent up to now is       45.6 secs

     total energy              =    -448.58155307 Ry
     estimated scf accuracy    <       0.00001494 Ry

     iteration #  6     ecut=   124.00 Ry     beta= 0.70
     Davidson diagonalization with overlap
     ethr =  5.33E-08,  avg # of iterations =  4.8

     negative rho (up, down):  9.752E-04 0.000E+00

     total cpu time spent up to now is       46.7 secs

     total energy              =    -448.58155977 Ry
     estimated scf accuracy    <       0.00000389 Ry

     iteration #  7     ecut=   124.00 Ry     beta= 0.70
     Davidson diagonalization with overlap
     ethr =  1.39E-08,  avg # of iterations =  2.6

     negative rho (up, down):  9.736E-04 0.000E+00

     total cpu time spent up to now is       47.7 secs

     total energy              =    -448.58155639 Ry
     estimated scf accuracy    <       0.00001076 Ry

     iteration #  8     ecut=   124.00 Ry     beta= 0.70
     Davidson diagonalization with overlap
     ethr =  1.39E-08,  avg # of iterations =  3.2

     negative rho (up, down):  9.736E-04 0.000E+00

     total cpu time spent up to now is       48.7 secs

     total energy              =    -448.58155747 Ry
     estimated scf accuracy    <       0.00000039 Ry

     iteration #  9     ecut=   124.00 Ry     beta= 0.70
     Davidson diagonalization with overlap
     ethr =  1.38E-09,  avg # of iterations =  3.3

     negative rho (up, down):  9.738E-04 0.000E+00

     total cpu time spent up to now is       49.7 secs

     total energy              =    -448.58155753 Ry
     estimated scf accuracy    <       0.00000018 Ry

     iteration # 10     ecut=   124.00 Ry     beta= 0.70
     Davidson diagonalization with overlap
     ethr =  6.41E-10,  avg # of iterations =  1.9

     negative rho (up, down):  9.737E-04 0.000E+00

     total cpu time spent up to now is       50.7 secs

     total energy              =    -448.58155750 Ry
     estimated scf accuracy    <       0.00000016 Ry

     iteration # 11     ecut=   124.00 Ry     beta= 0.70
     Davidson diagonalization with overlap
     ethr =  5.79E-10,  avg # of iterations =  1.9

     negative rho (up, down):  9.736E-04 0.000E+00

     total cpu time spent up to now is       51.6 secs

     total energy              =    -448.58155749 Ry
     estimated scf accuracy    <       0.00000007 Ry

     iteration # 12     ecut=   124.00 Ry     beta= 0.70
     Davidson diagonalization with overlap
     ethr =  2.47E-10,  avg # of iterations =  3.1

     negative rho (up, down):  9.734E-04 0.000E+00

     total cpu time spent up to now is       52.6 secs

     End of self-consistent calculation

          k = 0.0000 0.0000 0.0000 (  3911 PWs)   bands (ev):

   -70.8298 -40.9975 -36.8879 -36.8879 -36.8879 -17.1120 -17.1120 -17.1120
     8.7579  12.6183  12.6183  15.0833  15.0833  15.0833  17.1938  17.1938
    18.9164  18.9164

          k = 0.0000 0.0000 0.0884 (  3947 PWs)   bands (ev):

   -70.8296 -40.9959 -36.8899 -36.8876 -36.8876 -17.1335 -17.1106 -17.1106
     8.9179  12.6926  12.6938  15.0715  15.0715  15.1171  17.1028  17.2273
    18.6966  18.6966

          k = 0.0000 0.0000 0.1767 (  3964 PWs)   bands (ev):

   -70.8291 -40.9915 -36.8952 -36.8870 -36.8870 -17.1909 -17.1069 -17.1069
     9.3841  12.8818  12.9146  15.0442  15.0442  15.2118  16.8390  17.2998
    18.1821  18.1821

          k = 0.0000 0.0000 0.2651 (  3988 PWs)   bands (ev):

   -70.8285 -40.9857 -36.9021 -36.8861 -36.8861 -17.2653 -17.1021 -17.1021
    10.1141  13.0827  13.2610  15.0192  15.0192  15.3460  16.4336  17.3106
    17.6106  17.6106

          k = 0.0000 0.0000 0.3535 (  4008 PWs)   bands (ev):

   -70.8279 -40.9804 -36.9085 -36.8853 -36.8853 -17.3330 -17.0976 -17.0976
    11.0282  13.1177  13.6875  15.0109  15.0109  15.4822  15.9499  17.1071
    17.1428  17.1428

          k = 0.0000 0.0000 0.4418 (  3992 PWs)   bands (ev):

   -70.8276 -40.9773 -36.9122 -36.8847 -36.8847 -17.3729 -17.0950 -17.0950
    11.9768  12.7830  14.0662  15.0154  15.0154  15.5361  15.5708  16.8063
    16.8790  16.8790

          k = 0.0000 0.0884 0.0884 (  3966 PWs)   bands (ev):

   -70.8294 -40.9942 -36.8903 -36.8891 -36.8874 -17.1340 -17.1300 -17.1092
     9.0751  12.7622  12.7711  15.0000  15.0528  15.2005  17.0892  17.2019
    18.4555  18.4755

          k = 0.0000 0.0884 0.1767 (  3978 PWs)   bands (ev):

   -70.8289 -40.9896 -36.8953 -36.8890 -36.8867 -17.1890 -17.1276 -17.1054
     9.5325  12.9474  12.9858  14.9290  15.0065  15.3032  16.8862  17.2651
    17.9718  18.0059

          k = 0.0000 0.0884 0.2651 (  3995 PWs)   bands (ev):

   -70.8283 -40.9836 -36.9024 -36.8884 -36.8858 -17.2628 -17.1222 -17.1004
    10.2458  13.1462  13.3115  14.8889  14.9534  15.3781  16.5413  17.2233
    17.5239  17.5634

          k = 0.0000 0.0884 0.3535 (  3991 PWs)   bands (ev):

   -70.8278 -40.9781 -36.9088 -36.8878 -36.8850 -17.3299 -17.1173 -17.0958
    11.1331  13.1712  13.7082  14.8901  14.9061  15.3861  16.1436  16.8552
    17.2661  17.3597

          k = 0.0000 0.0884 0.4418 (  3999 PWs)   bands (ev):

   -70.8274 -40.9749 -36.9126 -36.8874 -36.8845 -17.3694 -17.1143 -17.0930
    12.0433  12.8360  14.0567  14.8469  14.9178  15.3429  15.8532  16.5830
    17.1446  17.1751

          k = 0.0000 0.1767 0.1767 (  3972 PWs)   bands (ev):

   -70.8285 -40.9846 -36.8968 -36.8932 -36.8861 -17.1891 -17.1778 -17.1012
     9.9609  13.0784  13.2203  14.7764  14.9185  15.3684  16.9292  17.2304
    17.5087  17.7214

          k = 0.0000 0.1767 0.2651 (  4003 PWs)   bands (ev):

   -70.8279 -40.9780 -36.9031 -36.8944 -36.8852 -17.2561 -17.1759 -17.0958
    10.6179  13.2068  13.5484  14.6691  14.8313  15.3017  16.7817  17.0039
    17.3705  17.5619

          k = 0.0000 0.1767 0.3535 (  3997 PWs)   bands (ev):

   -70.8273 -40.9719 -36.9098 -36.8945 -36.8844 -17.3215 -17.1697 -17.0907
    11.4093  13.1851  13.8944  14.6354  14.7963  15.1197  16.5163  16.6926
    17.4645  17.5753

          k = 0.0000 0.1767 0.4418 (  3990 PWs)   bands (ev):

   -70.8269 -40.9683 -36.9138 -36.8945 -36.8839 -17.3602 -17.1659 -17.0877
    12.1744  12.8890  14.1548  14.6759  14.8121  14.9325  16.3598  16.4702
    17.4652  17.6570

          k = 0.0000 0.2651 0.2651 (  4000 PWs)   bands (ev):

   -70.8272 -40.9706 -36.9053 -36.9010 -36.8844 -17.2531 -17.2399 -17.0897
    11.1586  13.1772  13.9363  14.4856  14.7736  15.0667  16.8014  16.9879
    17.2729  17.7123

          k = 0.0000 0.2651 0.3535 (  3993 PWs)   bands (ev):

   -70.8267 -40.9638 -36.9111 -36.9032 -36.8836 -17.3107 -17.2377 -17.0841
    11.7464  13.0378  14.3255  14.3878  14.7823  14.8864  16.6306  16.9643
    17.4145  17.9530

          k = 0.0000 0.2651 0.4418 (  3996 PWs)   bands (ev):

   -70.8263 -40.9598 -36.9153 -36.9038 -36.8832 -17.3480 -17.2330 -17.0808
    12.2242  12.8120  14.3969  14.5389  14.5529  15.1778  16.3998  16.9303
    17.5818  18.1691

          k = 0.0000 0.3535 0.3535 (  4002 PWs)   bands (ev):

   -70.8261 -40.9563 -36.9130 -36.9105 -36.8829 -17.3039 -17.2963 -17.0780
    12.0160  12.8373  14.2226  14.4763  14.8584  15.2115  16.7303  17.2567
    17.2847  18.3086

          k = 0.0000 0.3535 0.4418 (  3999 PWs)   bands (ev):

   -70.8258 -40.9519 -36.9167 -36.9124 -36.8825 -17.3368 -17.2940 -17.0744
    12.1635  12.6885  14.1758  14.2653  15.1791  15.7890  16.5048  17.3212
    17.4438  18.5747

          k = 0.0000 0.4418 0.4418 (  3998 PWs)   bands (ev):

   -70.8254 -40.9471 -36.9177 -36.9173 -36.8820 -17.3307 -17.3296 -17.0706
    12.0955  12.6105  14.0689  14.0987  15.8193  16.2199  16.8214  16.9850
    17.5649  18.8134

          k = 0.0884 0.0884 0.0884 (  3959 PWs)   bands (ev):

   -70.8292 -40.9924 -36.8900 -36.8900 -36.8884 -17.1340 -17.1286 -17.1286
     9.2299  12.8391  12.8391  14.9797  14.9797  15.2665  17.1336  17.1336
    18.0864  18.6780

          k = 0.0884 0.0884 0.1767 (  3966 PWs)   bands (ev):

   -70.8288 -40.9877 -36.8953 -36.8893 -36.8883 -17.1872 -17.1272 -17.1248
     9.6795  13.0335  13.0364  14.8822  14.9259  15.3366  16.9366  17.2325
    17.6665  18.1604

          k = 0.0884 0.0884 0.2651 (  3992 PWs)   bands (ev):

   -70.8282 -40.9815 -36.9025 -36.8884 -36.8879 -17.2603 -17.1211 -17.1198
    10.3782  13.2325  13.3416  14.8278  14.8524  15.3324  16.6382  17.1767
    17.4866  17.5960

          k = 0.0884 0.0884 0.3535 (  3994 PWs)   bands (ev):

   -70.8276 -40.9758 -36.9091 -36.8876 -36.8875 -17.3269 -17.1155 -17.1153
    11.2416  13.2455  13.7086  14.7624  14.8501  15.2608  16.3024  16.9045
    17.1467  17.5585

          k = 0.0884 0.0884 0.4418 (  4007 PWs)   bands (ev):

   -70.8272 -40.9725 -36.9130 -36.8873 -36.8871 -17.3661 -17.1126 -17.1122
    12.1179  12.9032  14.0291  14.6515  14.9449  15.1854  16.0588  16.6317
    16.9015  17.6420

          k = 0.0884 0.1767 0.1767 (  3984 PWs)   bands (ev):

   -70.8283 -40.9826 -36.8965 -36.8935 -36.8882 -17.1868 -17.1763 -17.1215
    10.1037  13.1678  13.2659  14.7431  14.8268  15.3008  16.9890  17.2056
    17.4113  17.9095

          k = 0.0884 0.1767 0.2651 (  3994 PWs)   bands (ev):

   -70.8277 -40.9759 -36.9030 -36.8943 -36.8876 -17.2537 -17.1741 -17.1157
    10.7521  13.3125  13.5644  14.6293  14.7334  15.1421  16.8580  17.1092
    17.4072  17.6089

          k = 0.0884 0.1767 0.3535 (  4001 PWs)   bands (ev):

   -70.8271 -40.9697 -36.9099 -36.8943 -36.8870 -17.3188 -17.1678 -17.1104
    11.5284  13.2963  13.8564  14.5598  14.7191  14.9835  16.6548  16.7893
    17.2739  17.8305

          k = 0.0884 0.1767 0.4418 (  3993 PWs)   bands (ev):

   -70.8268 -40.9660 -36.9140 -36.8943 -36.8866 -17.3573 -17.1641 -17.1072
    12.2720  12.9891  14.0788  14.4898  14.8136  14.9184  16.4817  16.5406
    17.0899  18.1659

          k = 0.0884 0.2651 0.2651 (  3989 PWs)   bands (ev):

   -70.8271 -40.9684 -36.9049 -36.9011 -36.8869 -17.2504 -17.2384 -17.1095
    11.2942  13.2872  13.9452  14.4501  14.6647  14.8773  16.9053  17.1288
    17.2557  17.8243

          k = 0.0884 0.2651 0.3535 (  3985 PWs)   bands (ev):

   -70.8265 -40.9616 -36.9110 -36.9031 -36.8862 -17.3083 -17.2358 -17.1038
    11.8784  13.1499  14.2745  14.3478  14.6729  14.7752  16.7031  17.0432
    17.3176  18.1846

          k = 0.0884 0.2651 0.4418 (  4006 PWs)   bands (ev):

   -70.8262 -40.9576 -36.9153 -36.9036 -36.8858 -17.3456 -17.2312 -17.1004
    12.3438  12.9264  14.3228  14.3537  14.6068  15.1044  16.4310  17.0227
    17.2447  18.6127

          k = 0.0884 0.3535 0.3535 (  3992 PWs)   bands (ev):

   -70.8259 -40.9542 -36.9127 -36.9104 -36.8855 -17.3017 -17.2948 -17.0977
    12.1504  12.9487  14.1940  14.3953  14.8192  15.0607  16.7058  17.1451
    17.3755  18.5793

          k = 0.0884 0.3535 0.4418 (  4002 PWs)   bands (ev):

   -70.8256 -40.9498 -36.9165 -36.9121 -36.8850 -17.3349 -17.2924 -17.0941
    12.2894  12.8039  14.1450  14.2178  15.1073  15.6316  16.4727  17.1065
    17.4558  18.7938

          k = 0.0884 0.4418 0.4418 (  3993 PWs)   bands (ev):

   -70.8253 -40.9451 -36.9173 -36.9170 -36.8846 -17.3290 -17.3280 -17.0903
    12.2214  12.7256  14.0469  14.0727  15.7610  16.0754  16.6217  16.6926
    17.6361  18.9956

          k = 0.1767 0.1767 0.1767 (  3989 PWs)   bands (ev):

   -70.8278 -40.9772 -36.8958 -36.8958 -36.8922 -17.1837 -17.1724 -17.1724
    10.5132  13.3951  13.3951  14.6537  14.6537  15.0652  17.1328  17.1328
    17.4558  18.1233

          k = 0.1767 0.1767 0.2651 (  3992 PWs)   bands (ev):

   -70.8272 -40.9702 -36.9030 -36.8948 -36.8933 -17.2474 -17.1708 -17.1672
    11.1307  13.5853  13.6107  14.5298  14.5326  14.7896  17.0228  17.1815
    17.5827  17.7229

          k = 0.1767 0.1767 0.3535 (  3994 PWs)   bands (ev):

   -70.8266 -40.9637 -36.9102 -36.8939 -36.8937 -17.3115 -17.1631 -17.1625
    11.8489  13.5386  13.7985  14.4026  14.5510  14.7287  16.9081  16.9242
    17.1610  18.2174

          k = 0.1767 0.1767 0.4418 (  3986 PWs)   bands (ev):

   -70.8263 -40.9598 -36.9145 -36.8939 -36.8933 -17.3495 -17.1597 -17.1585
    12.5024  13.1881  13.9762  14.2850  14.6452  14.8713  16.5447  16.8481
    16.9165  18.5586

          k = 0.1767 0.2651 0.2651 (  3994 PWs)   bands (ev):

   -70.8266 -40.9627 -36.9041 -36.9014 -36.8935 -17.2432 -17.2343 -17.1624
    11.6763  13.5875  13.9664  14.3575  14.4203  14.4856  17.0231  17.1830
    17.5036  18.1420

          k = 0.1767 0.2651 0.3535 (  3988 PWs)   bands (ev):

   -70.8260 -40.9558 -36.9107 -36.9027 -36.8930 -17.3021 -17.2309 -17.1562
    12.2467  13.4448  14.1084  14.2482  14.4455  14.5568  16.8029  17.0259
    17.4090  18.4320

          k = 0.1767 0.2651 0.4418 (  3991 PWs)   bands (ev):

   -70.8257 -40.9517 -36.9153 -36.9028 -36.8927 -17.3392 -17.2265 -17.1525
    12.6683  13.2123  14.1041  14.1865  14.5083  14.9283  16.4641  16.8874
    17.3302  18.6236

          k = 0.1767 0.3535 0.3535 (  3990 PWs)   bands (ev):

   -70.8255 -40.9485 -36.9119 -36.9102 -36.8923 -17.2957 -17.2906 -17.1501
    12.5344  13.2407  14.1218  14.2178  14.6943  14.6995  16.6902  16.8877
    17.6411  18.5784

          k = 0.1767 0.3535 0.4418 (  3993 PWs)   bands (ev):

   -70.8251 -40.9441 -36.9159 -36.9113 -36.8919 -17.3298 -17.2879 -17.1465
    12.6478  13.1077  14.0708  14.1103  14.8751  15.2553  16.4202  16.7545
    17.7076  18.7902

          k = 0.1767 0.4418 0.4418 (  4002 PWs)   bands (ev):

   -70.8248 -40.9397 -36.9165 -36.9162 -36.8914 -17.3245 -17.3238 -17.1429
    12.5822  13.0331  13.9936  14.0115  15.4952  15.5675  16.3190  16.4898
    17.8706  19.0502

          k = 0.2651 0.2651 0.2651 (  3998 PWs)   bands (ev):

   -70.8260 -40.9551 -36.9031 -36.9031 -36.9010 -17.2360 -17.2289 -17.2289
    12.2202  13.9867  13.9867  14.0549  14.2416  14.2416  17.0246  17.0246
    17.9215  17.9215

          k = 0.2651 0.2651 0.3535 (  3992 PWs)   bands (ev):

   -70.8254 -40.9481 -36.9105 -36.9021 -36.9019 -17.2939 -17.2248 -17.2239
    12.7451  13.6898  13.9970  14.1390  14.2246  14.4180  16.7851  16.8398
    17.7877  18.3590

          k = 0.2651 0.2651 0.4418 (  3990 PWs)   bands (ev):

   -70.8251 -40.9439 -36.9152 -36.9022 -36.9015 -17.3308 -17.2210 -17.2196
    13.0447  13.4528  14.0001  14.0778  14.3523  14.7895  16.4144  16.7286
    17.7403  18.6558

          k = 0.2651 0.3535 0.3535 (  3988 PWs)   bands (ev):

   -70.8249 -40.9410 -36.9107 -36.9099 -36.9014 -17.2878 -17.2851 -17.2183
    13.1039  13.5576  14.0401  14.1032  14.2905  14.5102  16.6427  16.6471
    18.0551  18.5374

          k = 0.2651 0.3535 0.4418 (  3992 PWs)   bands (ev):

   -70.8245 -40.9368 -36.9152 -36.9102 -36.9009 -17.3231 -17.2821 -17.2146
    13.1651  13.4639  14.0023  14.0361  14.5218  14.8623  16.3325  16.5730
    18.1097  18.8232

          k = 0.2651 0.4418 0.4418 (  4000 PWs)   bands (ev):

   -70.8242 -40.9325 -36.9153 -36.9152 -36.9004 -17.3187 -17.3183 -17.2112
    13.1209  13.4252  13.9411  13.9616  14.9922  15.0266  16.1844  16.4215
    18.2638  19.0833

          k = 0.3535 0.3535 0.3535 (  3999 PWs)   bands (ev):

   -70.8243 -40.9341 -36.9097 -36.9097 -36.9096 -17.2808 -17.2800 -17.2800
    13.5735  13.7491  13.9887  13.9887  14.2982  14.2982  16.4890  16.4890
    18.5428  18.5428

          k = 0.3535 0.3535 0.4418 (  4008 PWs)   bands (ev):

   -70.8240 -40.9300 -36.9146 -36.9095 -36.9091 -17.3169 -17.2770 -17.2762
    13.5758  13.7005  13.9953  14.1312  14.2306  14.6017  16.2524  16.4214
    18.5540  18.9052

          k = 0.3535 0.4418 0.4418 (  3994 PWs)   bands (ev):

   -70.8237 -40.9260 -36.9142 -36.9142 -36.9087 -17.3133 -17.3132 -17.2734
    13.6731  13.7730  13.9289  14.0089  14.5299  14.5841  16.1497  16.2979
    18.7490  19.1088

          k = 0.4418 0.4418 0.4418 (  3972 PWs)   bands (ev):

   -70.8233 -40.9220 -36.9136 -36.9135 -36.9135 -17.3102 -17.3102 -17.3100
    13.8661  13.9803  13.9803  14.2736  14.2819  14.2819  16.1412  16.1412
    19.1232  19.1232

     the Fermi energy is    15.9677 ev

!    total energy              =    -448.58155750 Ry
     estimated scf accuracy    <          7.5E-09 Ry
     smearing contrib. (-TS)   =       0.00002765 Ry
     internal energy E=F+TS    =    -448.58158515 Ry

     The total energy is F=E-TS. E is the sum of the following terms:
     one-electron contribution =    -162.61415292 Ry
     hartree contribution      =      95.48272454 Ry
     xc contribution           =     -52.74732850 Ry
     ewald contribution        =    -252.55096615 Ry
     one-center paw contrib.   =     -76.15186213 Ry

     convergence has been achieved in  12 iterations

     negative rho (up, down):  9.734E-04 0.000E+00

     Forces acting on atoms (cartesian axes, Ry/au):

     atom    1 type  1   force =     0.00000000    0.00000000    0.00000000
     atom    2 type  2   force =     0.00000000    0.00000000    0.00000000

     Total force =     0.000000     Total SCF correction =     0.000000


     Computing stress (Cartesian axis) and pressure


     negative rho (up, down):  9.734E-04 0.000E+00
          total   stress  (Ry/bohr**3)                   (kbar)     P=     -116.69
  -0.00079323   0.00000000   0.00000000         -116.69        0.00        0.00
   0.00000000  -0.00079323   0.00000000            0.00     -116.69        0.00
   0.00000000   0.00000000  -0.00079323            0.00        0.00     -116.69

     Energy error            =      9.3E-03 Ry
     Gradient error          =      0.0E+00 Ry/Bohr
     Cell gradient error     =      2.1E+01 kbar

     number of scf cycles    =   2
     number of bfgs steps    =   1

     enthalpy           old  =    -448.7472696450 Ry
     enthalpy           new  =    -448.7565568320 Ry

     CASE: enthalpy          _new < enthalpy          _old

     new trust radius        =       0.0117720010 bohr
     new conv_thr            =            1.0E-10 Ry

     new unit-cell volume =    188.89975 a.u.^3 (    27.99206 Ang^3 )
     density =      6.15238 g/cm^3

CELL_PARAMETERS (alat=  5.55330037)
   1.033219588   0.000000000   0.000000000
   0.000000000   1.033219588   0.000000000
   0.000000000   0.000000000   1.033219588

ATOMIC_POSITIONS (crystal)
Fe               0.5000000000        0.5000000000        0.5000000000
Ti               0.0000000000        0.0000000000        0.0000000000



     Writing config-only to output data dir ./TiFe.save/ :
     XML data file
     NEW-OLD atomic charge density approx. for the potential
     New effective cutoffs (rho, wfc): 1626.04  116.15

     negative rho (up, down):  9.799E-04 0.000E+00

     total cpu time spent up to now is       54.6 secs

     per-process dynamical memory:   153.2 Mb

     Self-consistent Calculation

     iteration #  1     ecut=   124.00 Ry     beta= 0.70
     Davidson diagonalization with overlap
     ethr =  1.00E-06,  avg # of iterations =  5.0

     negative rho (up, down):  9.751E-04 0.000E+00

     total cpu time spent up to now is       56.0 secs

     total energy              =    -448.57937205 Ry
     estimated scf accuracy    <       0.00006307 Ry

     iteration #  2     ecut=   124.00 Ry     beta= 0.70
     Davidson diagonalization with overlap
     ethr =  2.25E-07,  avg # of iterations =  4.4

     negative rho (up, down):  9.719E-04 0.000E+00

     total cpu time spent up to now is       57.2 secs

     total energy              =    -448.57912681 Ry
     estimated scf accuracy    <       0.00613682 Ry

     iteration #  3     ecut=   124.00 Ry     beta= 0.70
     Davidson diagonalization with overlap
     ethr =  2.25E-07,  avg # of iterations =  4.9

     negative rho (up, down):  9.742E-04 0.000E+00

     total cpu time spent up to now is       58.3 secs

     total energy              =    -448.57947163 Ry
     estimated scf accuracy    <       0.00006168 Ry

     iteration #  4     ecut=   124.00 Ry     beta= 0.70
     Davidson diagonalization with overlap
     ethr =  2.20E-07,  avg # of iterations =  1.2

     negative rho (up, down):  9.741E-04 0.000E+00

     total cpu time spent up to now is       59.2 secs

     total energy              =    -448.57947608 Ry
     estimated scf accuracy    <       0.00000719 Ry

     iteration #  5     ecut=   124.00 Ry     beta= 0.70
     Davidson diagonalization with overlap
     ethr =  2.57E-08,  avg # of iterations =  3.9

     negative rho (up, down):  9.737E-04 0.000E+00

     total cpu time spent up to now is       60.2 secs

     total energy              =    -448.57947738 Ry
     estimated scf accuracy    <       0.00000022 Ry

     iteration #  6     ecut=   124.00 Ry     beta= 0.70
     Davidson diagonalization with overlap
     ethr =  7.72E-10,  avg # of iterations =  5.1

     negative rho (up, down):  9.735E-04 0.000E+00

     total cpu time spent up to now is       61.5 secs

     total energy              =    -448.57947755 Ry
     estimated scf accuracy    <       0.00000009 Ry

     iteration #  7     ecut=   124.00 Ry     beta= 0.70
     Davidson diagonalization with overlap
     ethr =  3.28E-10,  avg # of iterations =  2.6

     negative rho (up, down):  9.736E-04 0.000E+00

     total cpu time spent up to now is       62.5 secs

     total energy              =    -448.57947754 Ry
     estimated scf accuracy    <       0.00000011 Ry

     iteration #  8     ecut=   124.00 Ry     beta= 0.70
     Davidson diagonalization with overlap
     ethr =  3.28E-10,  avg # of iterations =  1.8

     negative rho (up, down):  9.736E-04 0.000E+00

     total cpu time spent up to now is       63.4 secs

     total energy              =    -448.57947755 Ry
     estimated scf accuracy    <          8.0E-09 Ry

     iteration #  9     ecut=   124.00 Ry     beta= 0.70
     Davidson diagonalization with overlap
     ethr =  2.87E-11,  avg # of iterations =  3.8

     negative rho (up, down):  9.736E-04 0.000E+00

     total cpu time spent up to now is       64.4 secs

     total energy              =    -448.57947755 Ry
     estimated scf accuracy    <          9.5E-10 Ry

     iteration # 10     ecut=   124.00 Ry     beta= 0.70
     Davidson diagonalization with overlap
     ethr =  3.39E-12,  avg # of iterations =  3.8

     negative rho (up, down):  9.736E-04 0.000E+00

     total cpu time spent up to now is       65.4 secs

     total energy              =    -448.57947755 Ry
     estimated scf accuracy    <          3.2E-10 Ry

     iteration # 11     ecut=   124.00 Ry     beta= 0.70
     Davidson diagonalization with overlap
     ethr =  1.16E-12,  avg # of iterations =  3.8

     negative rho (up, down):  9.736E-04 0.000E+00

     total cpu time spent up to now is       66.5 secs

     End of self-consistent calculation

          k = 0.0000 0.0000 0.0000 (  3911 PWs)   bands (ev):

   -71.0642 -41.2660 -37.1220 -37.1220 -37.1220 -17.3829 -17.3829 -17.3829
     8.5596  12.4366  12.4366  14.8551  14.8551  14.8551  16.9323  16.9323
    18.6240  18.6240

          k = 0.0000 0.0000 0.0880 (  3947 PWs)   bands (ev):

   -71.0640 -41.2644 -37.1239 -37.1217 -37.1217 -17.4034 -17.3815 -17.3815
     8.7178  12.5088  12.5110  14.8435  14.8435  14.8883  16.8432  16.9649
    18.4086  18.4086

          k = 0.0000 0.0000 0.1760 (  3964 PWs)   bands (ev):

   -71.0636 -41.2602 -37.1290 -37.1211 -37.1211 -17.4581 -17.3780 -17.3780
     9.1790  12.6922  12.7285  14.8164  14.8164  14.9814  16.5853  17.0351
    17.9039  17.9039

          k = 0.0000 0.0000 0.2640 (  3988 PWs)   bands (ev):

   -71.0630 -41.2547 -37.1356 -37.1203 -37.1203 -17.5291 -17.3733 -17.3733
     9.9019  12.8842  13.0696  14.7916  14.7916  15.1132  16.1884  17.0430
    17.3430  17.3430

          k = 0.0000 0.0000 0.3519 (  4008 PWs)   bands (ev):

   -71.0625 -41.2496 -37.1417 -37.1195 -37.1195 -17.5937 -17.3690 -17.3690
    10.8090  12.9088  13.4892  14.7829  14.7829  15.2470  15.7148  16.8383
    16.8839  16.8839

          k = 0.0000 0.0000 0.4399 (  3992 PWs)   bands (ev):

   -71.0621 -41.2466 -37.1453 -37.1190 -37.1190 -17.6319 -17.3665 -17.3665
    11.7541  12.5643  13.8611  14.7868  14.7868  15.3096  15.3340  16.5397
    16.6251  16.6251

          k = 0.0000 0.0880 0.0880 (  3966 PWs)   bands (ev):

   -71.0638 -41.2628 -37.1243 -37.1231 -37.1215 -17.4038 -17.4000 -17.3802
     8.8733  12.5779  12.5857  14.7735  14.8250  14.9699  16.8299  16.9400
    18.1723  18.1917

          k = 0.0000 0.0880 0.1760 (  3978 PWs)   bands (ev):

   -71.0634 -41.2584 -37.1291 -37.1230 -37.1209 -17.4563 -17.3977 -17.3765
     9.3259  12.7579  12.7966  14.7038  14.7794  15.0706  16.6313  17.0012
    17.6973  17.7313

          k = 0.0000 0.0880 0.2640 (  3995 PWs)   bands (ev):

   -71.0628 -41.2527 -37.1358 -37.1224 -37.1200 -17.5267 -17.3926 -17.3717
    10.0327  12.9476  13.1178  14.6642  14.7269  15.1442  16.2938  16.9579
    17.2571  17.2971

          k = 0.0000 0.0880 0.3519 (  3991 PWs)   bands (ev):

   -71.0623 -41.2475 -37.1420 -37.1219 -37.1193 -17.5908 -17.3878 -17.3672
    10.9138  12.9622  13.5085  14.6649  14.6802  15.1523  15.9042  16.5957
    17.0049  17.0921

          k = 0.0000 0.0880 0.4399 (  3999 PWs)   bands (ev):

   -71.0620 -41.2443 -37.1457 -37.1215 -37.1188 -17.6286 -17.3850 -17.3646
    11.8214  12.6180  13.8512  14.6223  14.6914  15.1107  15.6191  16.3265
    16.8853  16.9094

          k = 0.0000 0.1760 0.1760 (  3972 PWs)   bands (ev):

   -71.0630 -41.2537 -37.1304 -37.1271 -37.1202 -17.4563 -17.4458 -17.3725
     9.7504  12.8874  13.0245  14.5542  14.6925  15.1342  16.6730  16.9674
    17.2420  17.4524

          k = 0.0000 0.1760 0.2640 (  4003 PWs)   bands (ev):

   -71.0624 -41.2474 -37.1365 -37.1282 -37.1195 -17.5204 -17.4438 -17.3673
    10.4027  13.0104  13.3459  14.4489  14.6061  15.0688  16.5292  16.7436
    17.1050  17.2957

          k = 0.0000 0.1760 0.3519 (  3997 PWs)   bands (ev):

   -71.0619 -41.2416 -37.1429 -37.1283 -37.1187 -17.5829 -17.4379 -17.3624
    11.1909  12.9806  13.6864  14.4156  14.5707  14.8907  16.2690  16.4365
    17.1950  17.3082

          k = 0.0000 0.1760 0.4399 (  3990 PWs)   bands (ev):

   -71.0615 -41.2382 -37.1467 -37.1283 -37.1182 -17.6198 -17.4343 -17.3596
    11.9572  12.6761  13.9438  14.4547  14.5844  14.7077  16.1138  16.2180
    17.1935  17.3879

          k = 0.0000 0.2640 0.2640 (  4000 PWs)   bands (ev):

   -71.0618 -41.2404 -37.1384 -37.1346 -37.1187 -17.5174 -17.5051 -17.3615
    10.9425  12.9800  13.7250  14.2689  14.5476  14.8384  16.5439  16.7322
    17.0078  17.4429

          k = 0.0000 0.2640 0.3519 (  3993 PWs)   bands (ev):

   -71.0613 -41.2340 -37.1440 -37.1366 -37.1179 -17.5726 -17.5030 -17.3562
    11.5333  12.8380  14.1066  14.1728  14.5596  14.6551  16.3750  16.7083
    17.1460  17.6786

          k = 0.0000 0.2640 0.4399 (  3996 PWs)   bands (ev):

   -71.0610 -41.2302 -37.1481 -37.1371 -37.1175 -17.6084 -17.4985 -17.3530
    12.0183  12.6071  14.1814  14.3160  14.3348  14.9381  16.1465  16.6757
    17.3076  17.8903

          k = 0.0000 0.3519 0.3519 (  4002 PWs)   bands (ev):

   -71.0608 -41.2270 -37.1458 -37.1435 -37.1173 -17.5663 -17.5591 -17.3504
    11.8126  12.6390  14.0106  14.2593  14.6293  14.9701  16.4715  16.9893
    17.0232  18.0273

          k = 0.0000 0.3519 0.4399 (  3999 PWs)   bands (ev):

   -71.0604 -41.2228 -37.1493 -37.1451 -37.1169 -17.5978 -17.5569 -17.3469
    11.9689  12.4888  13.9646  14.0524  14.9433  15.5377  16.2483  17.0559
    17.1741  18.2881

          k = 0.0000 0.4399 0.4399 (  3998 PWs)   bands (ev):

   -71.0601 -41.2184 -37.1502 -37.1498 -37.1164 -17.5920 -17.5910 -17.3433
    11.9069  12.4133  13.8596  13.8888  15.5750  15.9649  16.5567  16.7174
    17.2972  18.5222

          k = 0.0880 0.0880 0.0880 (  3959 PWs)   bands (ev):

   -71.0637 -41.2611 -37.1240 -37.1240 -37.1225 -17.4038 -17.3987 -17.3987
     9.0264  12.6527  12.6527  14.7535  14.7535  15.0344  16.8733  16.8733
    17.8101  18.3903

          k = 0.0880 0.0880 0.1760 (  3966 PWs)   bands (ev):

   -71.0632 -41.2566 -37.1291 -37.1234 -37.1224 -17.4545 -17.3973 -17.3950
     9.4715  12.8413  12.8471  14.6578  14.7005  15.1029  16.6806  16.9693
    17.3979  17.8825

          k = 0.0880 0.0880 0.2640 (  3992 PWs)   bands (ev):

   -71.0627 -41.2507 -37.1360 -37.1225 -37.1220 -17.5244 -17.3915 -17.3903
    10.1640  13.0319  13.1476  14.6041  14.6282  15.0989  16.3887  16.9126
    17.2205  17.3284

          k = 0.0880 0.0880 0.3519 (  3994 PWs)   bands (ev):

   -71.0621 -41.2453 -37.1423 -37.1217 -37.1216 -17.5879 -17.3861 -17.3859
    11.0219  13.0354  13.5087  14.5396  14.6254  15.0292  16.0599  16.6424
    16.8872  17.2893

          k = 0.0880 0.0880 0.4399 (  4007 PWs)   bands (ev):

   -71.0618 -41.2421 -37.1460 -37.1214 -37.1212 -17.6255 -17.3833 -17.3829
    11.8963  12.6850  13.8241  14.4307  14.7176  14.9558  15.8209  16.3717
    16.6464  17.3703

          k = 0.0880 0.1760 0.1760 (  3984 PWs)   bands (ev):

   -71.0628 -41.2518 -37.1301 -37.1274 -37.1223 -17.4541 -17.4444 -17.3919
     9.8918  12.9749  13.0694  14.5215  14.6030  15.0674  16.7315  16.9432
    17.1468  17.6363

          k = 0.0880 0.1760 0.2640 (  3994 PWs)   bands (ev):

   -71.0622 -41.2454 -37.1364 -37.1281 -37.1217 -17.5181 -17.4421 -17.3863
    10.5356  13.1142  13.3616  14.4097  14.5106  14.9119  16.6035  16.8467
    17.1417  17.3411

          k = 0.0880 0.1760 0.3519 (  4001 PWs)   bands (ev):

   -71.0617 -41.2395 -37.1430 -37.1281 -37.1211 -17.5803 -17.4361 -17.3812
    11.3091  13.0896  13.6495  14.3409  14.4957  14.7567  16.4053  16.5306
    17.0095  17.5572

          k = 0.0880 0.1760 0.4399 (  3993 PWs)   bands (ev):

   -71.0614 -41.2360 -37.1469 -37.1280 -37.1207 -17.6171 -17.4326 -17.3782
    12.0540  12.7747  13.8702  14.2707  14.5889  14.6912  16.2297  16.2904
    16.8283  17.8854

          k = 0.0880 0.2640 0.2640 (  3989 PWs)   bands (ev):

   -71.0616 -41.2384 -37.1381 -37.1346 -37.1210 -17.5149 -17.5036 -17.3804
    11.0765  13.0882  13.7339  14.2338  14.4414  14.6522  16.6460  16.8709
    16.9907  17.5519

          k = 0.0880 0.2640 0.3519 (  3985 PWs)   bands (ev):

   -71.0611 -41.2319 -37.1439 -37.1364 -37.1204 -17.5704 -17.5012 -17.3749
    11.6636  12.9482  14.0571  14.1330  14.4510  14.5472  16.4462  16.7854
    17.0517  17.9050

          k = 0.0880 0.2640 0.4399 (  4006 PWs)   bands (ev):

   -71.0608 -41.2281 -37.1480 -37.1368 -37.1200 -17.6061 -17.4968 -17.3717
    12.1364  12.7198  14.1087  14.1371  14.3833  14.8673  16.1768  16.7663
    16.9788  18.3253

          k = 0.0880 0.3519 0.3519 (  3992 PWs)   bands (ev):

   -71.0606 -41.2250 -37.1455 -37.1434 -37.1197 -17.5641 -17.5576 -17.3691
    11.9453  12.7485  13.9823  14.1795  14.5906  14.8226  16.4483  16.8794
    17.1126  18.2924

          k = 0.0880 0.3519 0.4399 (  4002 PWs)   bands (ev):

   -71.0603 -41.2208 -37.1491 -37.1449 -37.1193 -17.5960 -17.5553 -17.3657
    12.0933  12.6025  13.9340  14.0054  14.8721  15.3833  16.2174  16.8410
    17.1911  18.5039

          k = 0.0880 0.4399 0.4399 (  3993 PWs)   bands (ev):

   -71.0600 -41.2164 -37.1499 -37.1496 -37.1189 -17.5904 -17.5895 -17.3621
    12.0312  12.5265  13.8377  13.8629  15.5168  15.8209  16.3632  16.4310
    17.3674  18.7025

          k = 0.1760 0.1760 0.1760 (  3989 PWs)   bands (ev):

   -71.0624 -41.2467 -37.1294 -37.1294 -37.1262 -17.4512 -17.4406 -17.4406
    10.2977  13.1967  13.1967  14.4335  14.4335  14.8357  16.8719  16.8719
    17.1896  17.8460

          k = 0.1760 0.1760 0.2640 (  3992 PWs)   bands (ev):

   -71.0618 -41.2400 -37.1364 -37.1285 -37.1271 -17.5121 -17.4390 -17.4356
    10.9112  13.3841  13.4047  14.3115  14.3141  14.5653  16.7644  16.9173
    17.3155  17.4514

          k = 0.1760 0.1760 0.3519 (  3994 PWs)   bands (ev):

   -71.0613 -41.2339 -37.1432 -37.1277 -37.1275 -17.5734 -17.4317 -17.4310
    11.6279  13.3263  13.5944  14.1857  14.3313  14.5061  16.6523  16.6615
    16.9014  17.9365

          k = 0.1760 0.1760 0.4399 (  3986 PWs)   bands (ev):

   -71.0609 -41.2302 -37.1473 -37.1276 -37.1271 -17.6097 -17.4283 -17.4273
    12.2844  12.9725  13.7704  14.0687  14.4225  14.6441  16.2867  16.5941
    16.6611  18.2731

          k = 0.1760 0.2640 0.2640 (  3994 PWs)   bands (ev):

   -71.0612 -41.2329 -37.1374 -37.1349 -37.1273 -17.5081 -17.4997 -17.4309
    11.4546  13.3832  13.7548  14.1424  14.2032  14.2665  16.7622  16.9188
    17.2389  17.8621

          k = 0.1760 0.2640 0.3519 (  3988 PWs)   bands (ev):

   -71.0607 -41.2264 -37.1437 -37.1360 -37.1269 -17.5645 -17.4965 -17.4251
    12.0276  13.2383  13.8955  14.0342  14.2247  14.3358  16.5443  16.7640
    17.1461  18.1497

          k = 0.1760 0.2640 0.4399 (  3991 PWs)   bands (ev):

   -71.0604 -41.2225 -37.1480 -37.1361 -37.1266 -17.6000 -17.4923 -17.4215
    12.4574  13.0021  13.8942  13.9716  14.2846  14.6970  16.2087  16.6287
    17.0690  18.3371

          k = 0.1760 0.3519 0.3519 (  3990 PWs)   bands (ev):

   -71.0602 -41.2196 -37.1447 -37.1432 -37.1262 -17.5584 -17.5536 -17.4193
    12.3246  13.0360  13.9107  14.0041  14.4644  14.4727  16.4338  16.6265
    17.3736  18.2936

          k = 0.1760 0.3519 0.4399 (  3993 PWs)   bands (ev):

   -71.0599 -41.2155 -37.1486 -37.1441 -37.1258 -17.5911 -17.5510 -17.4158
    12.4477  12.9018  13.8602  13.8989  14.6424  15.0154  16.1660  16.4965
    17.4388  18.5012

          k = 0.1760 0.4399 0.4399 (  4002 PWs)   bands (ev):

   -71.0595 -41.2113 -37.1490 -37.1488 -37.1254 -17.5861 -17.5854 -17.4124
    12.3877  12.8291  13.7845  13.8019  15.2533  15.3215  16.0665  16.2352
    17.5981  18.7567

          k = 0.2640 0.2640 0.2640 (  3998 PWs)   bands (ev):

   -71.0606 -41.2258 -37.1364 -37.1364 -37.1345 -17.5012 -17.4945 -17.4945
    11.9945  13.7754  13.7754  13.8425  14.0276  14.0276  16.7629  16.7629
    17.6493  17.6493

          k = 0.2640 0.2640 0.3519 (  3992 PWs)   bands (ev):

   -71.0601 -41.2192 -37.1434 -37.1355 -37.1353 -17.5567 -17.4906 -17.4898
    12.5220  13.4802  13.7867  13.9251  14.0081  14.1990  16.5259  16.5817
    17.5181  18.0784

          k = 0.2640 0.2640 0.4399 (  3990 PWs)   bands (ev):

   -71.0598 -41.2153 -37.1479 -37.1355 -37.1349 -17.5920 -17.4869 -17.4858
    12.8323  13.2416  13.7922  13.8624  14.1294  14.5617  16.1600  16.4726
    17.4717  18.3690

          k = 0.2640 0.3519 0.3519 (  3988 PWs)   bands (ev):

   -71.0596 -41.2125 -37.1436 -37.1429 -37.1347 -17.5509 -17.5483 -17.4844
    12.8873  13.3491  13.8293  13.8881  14.0713  14.2869  16.3863  16.3915
    17.7803  18.2538

          k = 0.2640 0.3519 0.4399 (  3992 PWs)   bands (ev):

   -71.0593 -41.2085 -37.1479 -37.1431 -37.1344 -17.5846 -17.5454 -17.4809
    12.9597  13.2538  13.7912  13.8236  14.2945  14.6316  16.0804  16.3186
    17.8339  18.5338

          k = 0.2640 0.4399 0.4399 (  4000 PWs)   bands (ev):

   -71.0590 -41.2045 -37.1479 -37.1478 -37.1339 -17.5804 -17.5801 -17.4776
    12.9199  13.2155  13.7314  13.7510  14.7574  14.7926  15.9355  16.1685
    17.9847  18.7891

          k = 0.3519 0.3519 0.3519 (  3999 PWs)   bands (ev):

   -71.0591 -41.2060 -37.1426 -37.1426 -37.1426 -17.5442 -17.5434 -17.5434
    13.3657  13.5236  13.7770  13.7770  14.0797  14.0797  16.2355  16.2355
    18.2591  18.2591

          k = 0.3519 0.3519 0.4399 (  4008 PWs)   bands (ev):

   -71.0588 -41.2021 -37.1473 -37.1424 -37.1421 -17.5787 -17.5405 -17.5398
    13.3701  13.4881  13.7802  13.9185  14.0053  14.3772  16.0022  16.1693
    18.2701  18.6144

          k = 0.3519 0.4399 0.4399 (  3994 PWs)   bands (ev):

   -71.0585 -41.1983 -37.1469 -37.1469 -37.1417 -17.5752 -17.5752 -17.5371
    13.4660  13.5596  13.7173  13.7938  14.3051  14.3595  15.9016  16.0473
    18.4612  18.8141

          k = 0.4399 0.4399 0.4399 (  3972 PWs)   bands (ev):

   -71.0582 -41.1946 -37.1464 -37.1463 -37.1463 -17.5722 -17.5722 -17.5721
    13.6538  13.7641  13.7641  14.0536  14.0660  14.0660  15.8932  15.8932
    18.8283  18.8283

     the Fermi energy is    15.7323 ev

!    total energy              =    -448.57947755 Ry
     estimated scf accuracy    <          1.2E-11 Ry
     smearing contrib. (-TS)   =       0.00002216 Ry
     internal energy E=F+TS    =    -448.57949971 Ry

     The total energy is F=E-TS. E is the sum of the following terms:
     one-electron contribution =    -164.30530470 Ry
     hartree contribution      =      96.07211928 Ry
     xc contribution           =     -52.72769663 Ry
     ewald contribution        =    -251.46707020 Ry
     one-center paw contrib.   =     -76.15154746 Ry

     convergence has been achieved in  11 iterations

     negative rho (up, down):  9.736E-04 0.000E+00

     Forces acting on atoms (cartesian axes, Ry/au):

     atom    1 type  1   force =     0.00000000    0.00000000    0.00000000
     atom    2 type  2   force =     0.00000000    0.00000000    0.00000000

     Total force =     0.000000     Total SCF correction =     0.000000


     Computing stress (Cartesian axis) and pressure


     negative rho (up, down):  9.736E-04 0.000E+00
          total   stress  (Ry/bohr**3)                   (kbar)     P=     -135.24
  -0.00091938   0.00000000   0.00000000         -135.24        0.00        0.00
   0.00000000  -0.00091938   0.00000000            0.00     -135.24        0.00
   0.00000000   0.00000000  -0.00091938            0.00        0.00     -135.24

     Energy error            =      1.9E-04 Ry
     Gradient error          =      0.0E+00 Ry/Bohr
     Cell gradient error     =      2.8E+00 kbar

     number of scf cycles    =   3
     number of bfgs steps    =   2

     enthalpy           old  =    -448.7565568320 Ry
     enthalpy           new  =    -448.7567495419 Ry

     CASE: enthalpy          _new < enthalpy          _old

     new trust radius        =       0.0018010756 bohr
     new conv_thr            =            1.0E-10 Ry

     new unit-cell volume =    189.27131 a.u.^3 (    28.04711 Ang^3 )
     density =      6.14030 g/cm^3

CELL_PARAMETERS (alat=  5.55330037)
   1.033896573   0.000000000   0.000000000
   0.000000000   1.033896573   0.000000000
   0.000000000   0.000000000   1.033896573

ATOMIC_POSITIONS (crystal)
Fe               0.5000000000        0.5000000000        0.5000000000
Ti               0.0000000000        0.0000000000        0.0000000000



     Writing config-only to output data dir ./TiFe.save/ :
     XML data file
     NEW-OLD atomic charge density approx. for the potential
     New effective cutoffs (rho, wfc): 1623.91  116.00

     negative rho (up, down):  9.750E-04 0.000E+00

     total cpu time spent up to now is       68.4 secs

     per-process dynamical memory:   153.2 Mb

     Self-consistent Calculation

     iteration #  1     ecut=   124.00 Ry     beta= 0.70
     Davidson diagonalization with overlap
     ethr =  1.00E-06,  avg # of iterations =  2.0

     Threshold (ethr) on eigenvalues was too large:
     Diagonalizing with lowered threshold

     Davidson diagonalization with overlap
     ethr =  1.72E-09,  avg # of iterations =  6.5

     negative rho (up, down):  9.739E-04 0.000E+00

     total cpu time spent up to now is       70.7 secs

     total energy              =    -448.57913065 Ry
     estimated scf accuracy    <       0.00000107 Ry

[...]
     estimated scf accuracy    <       0.00132306 Ry

     iteration # 27     ecut=   124.00 Ry     beta= 0.70
     Davidson diagonalization with overlap
     ethr =  4.73E-06,  avg # of iterations =  2.5

     negative rho (up, down):  9.354E-04 0.000E+00

     total cpu time spent up to now is      126.8 secs

     total energy              =    -448.57931299 Ry
     estimated scf accuracy    <       0.00002512 Ry

     iteration # 28     ecut=   124.00 Ry     beta= 0.70
     Davidson diagonalization with overlap
     ethr =  8.97E-08,  avg # of iterations =  5.3

     negative rho (up, down):  9.327E-04 0.000E+00

     total cpu time spent up to now is      128.5 secs

     total energy              =    -448.57931930 Ry
     estimated scf accuracy    <       0.00026210 Ry

     iteration # 29     ecut=   124.00 Ry     beta= 0.70
     Davidson diagonalization with overlap
     ethr =  8.97E-08,  avg # of iterations =  3.6

     negative rho (up, down):  9.327E-04 0.000E+00

     total cpu time spent up to now is      129.9 secs

     total energy              =    -448.57933688 Ry
     estimated scf accuracy    <       0.00000052 Ry

     iteration # 30     ecut=   124.00 Ry     beta= 0.70
     Davidson diagonalization with overlap
     ethr =  1.84E-09,  avg # of iterations =  5.2

     negative rho (up, down):  9.333E-04 0.000E+00

     total cpu time spent up to now is      131.6 secs

     total energy              =    -448.57933720 Ry
     estimated scf accuracy    <       0.00000023 Ry

     iteration # 31     ecut=   124.00 Ry     beta= 0.70
     Davidson diagonalization with overlap
     ethr =  8.18E-10,  avg # of iterations =  3.0

     negative rho (up, down):  9.332E-04 0.000E+00

     total cpu time spent up to now is      132.9 secs

     total energy              =    -448.57933724 Ry
     estimated scf accuracy    <       0.00000001 Ry

     iteration # 32     ecut=   124.00 Ry     beta= 0.70
     Davidson diagonalization with overlap
     ethr =  4.23E-11,  avg # of iterations =  4.3

     negative rho (up, down):  9.332E-04 0.000E+00

     total cpu time spent up to now is      134.4 secs

     total energy              =    -448.57933725 Ry
     estimated scf accuracy    <          1.3E-09 Ry

     iteration # 33     ecut=   124.00 Ry     beta= 0.70
     Davidson diagonalization with overlap
     ethr =  4.78E-12,  avg # of iterations =  4.1

     negative rho (up, down):  9.332E-04 0.000E+00

     total cpu time spent up to now is      135.9 secs

     total energy              =    -448.57933725 Ry
     estimated scf accuracy    <          4.4E-10 Ry

     iteration # 34     ecut=   124.00 Ry     beta= 0.70
     Davidson diagonalization with overlap
     ethr =  1.59E-12,  avg # of iterations =  2.8

     negative rho (up, down):  9.332E-04 0.000E+00

     total cpu time spent up to now is      137.3 secs

     End of self-consistent calculation

          k = 0.0000 0.0000 0.0000 (  4385 PWs)   bands (ev):

   -71.0998 -41.3067 -37.1579 -37.1579 -37.1579 -17.4240 -17.4240 -17.4240
     8.5296  12.4090  12.4090  14.8205  14.8205  14.8205  16.8926  16.8926
    18.5796  18.5796

          k = 0.0000 0.0000 0.0879 (  4409 PWs)   bands (ev):

   -71.0996 -41.3051 -37.1598 -37.1576 -37.1576 -17.4443 -17.4226 -17.4226
     8.6875  12.4809  12.4833  14.8089  14.8089  14.8536  16.8039  16.9251
    18.3648  18.3648

          k = 0.0000 0.0000 0.1759 (  4412 PWs)   bands (ev):

   -71.0992 -41.3010 -37.1648 -37.1570 -37.1570 -17.4986 -17.4191 -17.4191
     9.1479  12.6634  12.7003  14.7819  14.7819  14.9464  16.5468  16.9949
    17.8617  17.8617

          k = 0.0000 0.0000 0.2638 (  4420 PWs)   bands (ev):

   -71.0986 -41.2955 -37.1714 -37.1562 -37.1562 -17.5691 -17.4145 -17.4145
     9.8697  12.8541  13.0405  14.7571  14.7571  15.0779  16.1512  17.0024
    17.3023  17.3023

          k = 0.0000 0.0000 0.3517 (  4400 PWs)   bands (ev):

   -71.0981 -41.2904 -37.1774 -37.1554 -37.1554 -17.6333 -17.4102 -17.4102
    10.7758  12.8771  13.4591  14.7484  14.7484  15.2114  15.6791  16.7976
    16.8446  16.8446

          k = 0.0000 0.0000 0.4396 (  4416 PWs)   bands (ev):

   -71.0978 -41.2875 -37.1810 -37.1549 -37.1549 -17.6712 -17.4076 -17.4076
    11.7203  12.5311  13.8300  14.7522  14.7522  15.2753  15.2981  16.4994
    16.5865  16.5865

          k = 0.0000 0.0879 0.0879 (  4421 PWs)   bands (ev):

   -71.0995 -41.3035 -37.1601 -37.1590 -37.1574 -17.4447 -17.4410 -17.4213
     8.8427  12.5499  12.5576  14.7391  14.7905  14.9350  16.7906  16.9003
    18.1293  18.1486

          k = 0.0000 0.0879 0.1759 (  4414 PWs)   bands (ev):

   -71.0990 -41.2992 -37.1649 -37.1589 -37.1568 -17.4969 -17.4387 -17.4176
     9.2946  12.7292  12.7679  14.6697  14.7449  15.0353  16.5927  16.9612
    17.6556  17.6896

          k = 0.0000 0.0879 0.2638 (  4406 PWs)   bands (ev):

   -71.0985 -41.2935 -37.1716 -37.1583 -37.1559 -17.5668 -17.4336 -17.4128
    10.0004  12.9175  13.0884  14.6301  14.6926  15.1087  16.2563  16.9177
    17.2167  17.2566

          k = 0.0000 0.0879 0.3517 (  4408 PWs)   bands (ev):

   -71.0979 -41.2883 -37.1777 -37.1577 -37.1552 -17.6304 -17.4288 -17.4084
    10.8806  12.9305  13.4782  14.6308  14.6459  15.1169  15.8679  16.5563
    16.9652  17.0515

          k = 0.0000 0.0879 0.4396 (  4405 PWs)   bands (ev):

   -71.0976 -41.2852 -37.1814 -37.1574 -37.1547 -17.6679 -17.4260 -17.4058
    11.7877  12.5848  13.8201  14.5883  14.6571  15.0755  15.5836  16.2876
    16.8459  16.8691

          k = 0.0000 0.1759 0.1759 (  4409 PWs)   bands (ev):

   -71.0986 -41.2945 -37.1662 -37.1630 -37.1561 -17.4968 -17.4864 -17.4137
     9.7186  12.8584  12.9948  14.5205  14.6583  15.0987  16.6341  16.9276
    17.2015  17.4115

          k = 0.0000 0.1759 0.2638 (  4408 PWs)   bands (ev):

   -71.0980 -41.2882 -37.1722 -37.1640 -37.1553 -17.5605 -17.4845 -17.4084
    10.3701  12.9806  13.3152  14.4155  14.5720  15.0335  16.4909  16.7041
    17.0648  17.2552

          k = 0.0000 0.1759 0.3517 (  4416 PWs)   bands (ev):

   -71.0975 -41.2825 -37.1786 -37.1641 -37.1546 -17.6226 -17.4786 -17.4037
    11.1578  12.9495  13.6549  14.3823  14.5365  14.8559  16.2315  16.3977
    17.1542  17.2676

          k = 0.0000 0.1759 0.4396 (  4411 PWs)   bands (ev):

   -71.0972 -41.2791 -37.1824 -37.1641 -37.1542 -17.6593 -17.4751 -17.4008
    11.9243  12.6438  13.9118  14.4212  14.5499  14.6736  16.0765  16.1798
    17.1523  17.3471

          k = 0.0000 0.2638 0.2638 (  4418 PWs)   bands (ev):

   -71.0975 -41.2813 -37.1741 -37.1703 -37.1546 -17.5576 -17.5454 -17.4027
    10.9097  12.9501  13.6930  14.2360  14.5133  14.8038  16.5048  16.6934
    16.9676  17.4020

          k = 0.0000 0.2638 0.3517 (  4413 PWs)   bands (ev):

   -71.0969 -41.2750 -37.1797 -37.1723 -37.1539 -17.6124 -17.5432 -17.3974
    11.5010  12.8076  14.0734  14.1402  14.5258  14.6200  16.3363  16.6695
    17.1052  17.6369

          k = 0.0000 0.2638 0.4396 (  4399 PWs)   bands (ev):

   -71.0966 -41.2712 -37.1837 -37.1728 -37.1534 -17.6479 -17.5388 -17.3943
    11.9870  12.5760  14.1487  14.2822  14.3017  14.9017  16.1081  16.6371
    17.2660  17.8480

          k = 0.0000 0.3517 0.3517 (  4414 PWs)   bands (ev):

   -71.0964 -41.2680 -37.1815 -37.1792 -37.1532 -17.6061 -17.5990 -17.3917
    11.7817  12.6089  13.9785  14.2264  14.5945  14.9335  16.4322  16.9487
    16.9835  17.9847

          k = 0.0000 0.3517 0.4396 (  4418 PWs)   bands (ev):

   -71.0961 -41.2638 -37.1850 -37.1808 -37.1528 -17.6374 -17.5968 -17.3883
    11.9394  12.4585  13.9326  14.0201  14.9075  15.4995  16.2094  17.0156
    17.1332  18.2447

          k = 0.0000 0.4396 0.4396 (  4420 PWs)   bands (ev):

   -71.0958 -41.2595 -37.1858 -37.1855 -37.1523 -17.6316 -17.6307 -17.3847
    11.8783  12.3834  13.8278  13.8570  15.5379  15.9262  16.5165  16.6766
    17.2566  18.4781

          k = 0.0879 0.0879 0.0879 (  4424 PWs)   bands (ev):

   -71.0993 -41.3019 -37.1599 -37.1599 -37.1584 -17.4447 -17.4396 -17.4396
     8.9956  12.6244  12.6244  14.7192  14.7192  14.9992  16.8338  16.8338
    17.7682  18.3467

          k = 0.0879 0.0879 0.1759 (  4417 PWs)   bands (ev):

   -71.0989 -41.2974 -37.1649 -37.1592 -37.1583 -17.4951 -17.4382 -17.4360
     9.4400  12.8122  12.8184  14.6238  14.6664  15.0675  16.6417  16.9294
    17.3571  17.8403

          k = 0.0879 0.0879 0.2638 (  4418 PWs)   bands (ev):

   -71.0983 -41.2915 -37.1717 -37.1584 -37.1579 -17.5644 -17.4325 -17.4313
    10.1316  13.0015  13.1182  14.5702  14.5942  15.0635  16.3508  16.8726
    17.1801  17.2877

          k = 0.0879 0.0879 0.3517 (  4406 PWs)   bands (ev):

   -71.0978 -41.2862 -37.1780 -37.1576 -37.1575 -17.6276 -17.4272 -17.4269
    10.9887  13.0035  13.4784  14.5058  14.5913  14.9941  16.0231  16.6027
    16.8477  17.2485

          k = 0.0879 0.0879 0.4396 (  4401 PWs)   bands (ev):

   -71.0975 -41.2830 -37.1817 -37.1573 -37.1571 -17.6648 -17.4244 -17.4240
    11.8627  12.6519  13.7930  14.3972  14.6831  14.9209  15.7849  16.3323
    16.6077  17.3291

          k = 0.0879 0.1759 0.1759 (  4416 PWs)   bands (ev):

   -71.0984 -41.2926 -37.1659 -37.1632 -37.1582 -17.4946 -17.4850 -17.4329
     9.8597  12.9456  13.0396  14.4879  14.5690  15.0320  16.6925  16.9034
    17.1066  17.5948

          k = 0.0879 0.1759 0.2638 (  4418 PWs)   bands (ev):

   -71.0979 -41.2863 -37.1722 -37.1639 -37.1576 -17.5583 -17.4827 -17.4274
    10.5028  13.0841  13.3309  14.3764  14.4768  14.8770  16.5650  16.8069
    17.1014  17.3005

          k = 0.0879 0.1759 0.3517 (  4404 PWs)   bands (ev):

   -71.0974 -41.2804 -37.1787 -37.1639 -37.1570 -17.6200 -17.4768 -17.4223
    11.2758  13.0582  13.6181  14.3077  14.4618  14.7224  16.3675  16.4913
    16.9694  17.5157

          k = 0.0879 0.1759 0.4396 (  4405 PWs)   bands (ev):

   -71.0970 -41.2770 -37.1826 -37.1638 -37.1566 -17.6565 -17.4733 -17.4193
    12.0210  12.7421  13.8385  14.2375  14.5548  14.6567  16.1914  16.2525
    16.7886  17.8428

          k = 0.0879 0.2638 0.2638 (  4416 PWs)   bands (ev):

   -71.0973 -41.2793 -37.1739 -37.1704 -37.1569 -17.5550 -17.5439 -17.4215
    11.0435  13.0579  13.7018  14.2010  14.4075  14.6181  16.6066  16.8317
    16.9505  17.5106

          k = 0.0879 0.2638 0.3517 (  4405 PWs)   bands (ev):

   -71.0968 -41.2729 -37.1796 -37.1722 -37.1562 -17.6102 -17.5415 -17.4161
    11.6310  12.9176  14.0241  14.1005  14.4173  14.5126  16.4072  16.7463
    17.0113  17.8625

          k = 0.0879 0.2638 0.4396 (  4404 PWs)   bands (ev):

   -71.0965 -41.2691 -37.1837 -37.1726 -37.1558 -17.6456 -17.5371 -17.4128
    12.1050  12.6885  14.0762  14.1042  14.3494  14.8313  16.1383  16.7274
    16.9384  18.2817

          k = 0.0879 0.3517 0.3517 (  4416 PWs)   bands (ev):

   -71.0963 -41.2660 -37.1812 -37.1791 -37.1556 -17.6039 -17.5975 -17.4103
    11.9141  12.7182  13.9502  14.1468  14.5559  14.7864  16.4093  16.8390
    17.0727  18.2489

          k = 0.0879 0.3517 0.4396 (  4411 PWs)   bands (ev):

   -71.0960 -41.2619 -37.1848 -37.1806 -37.1552 -17.6356 -17.5952 -17.4069
    12.0636  12.5719  13.9019  13.9732  14.8364  15.3456  16.1786  16.8006
    17.1509  18.4599

          k = 0.0879 0.4396 0.4396 (  4424 PWs)   bands (ev):

   -71.0957 -41.2576 -37.1855 -37.1852 -37.1547 -17.6300 -17.6292 -17.4034
    12.0024  12.4963  13.8060  13.8311  15.4798  15.7823  16.3240  16.3912
    17.3267  18.6581

          k = 0.1759 0.1759 0.1759 (  4410 PWs)   bands (ev):

   -71.0980 -41.2875 -37.1652 -37.1652 -37.1621 -17.4918 -17.4812 -17.4812
    10.2651  13.1666  13.1666  14.4001  14.4001  14.8009  16.8323  16.8323
    17.1491  17.8039

          k = 0.1759 0.1759 0.2638 (  4406 PWs)   bands (ev):

   -71.0974 -41.2809 -37.1721 -37.1643 -37.1630 -17.5523 -17.4797 -17.4763
    10.8779  13.3536  13.3734  14.2784  14.2810  14.5313  16.7252  16.8772
    17.2749  17.4102

          k = 0.1759 0.1759 0.3517 (  4401 PWs)   bands (ev):

   -71.0969 -41.2748 -37.1789 -37.1635 -37.1633 -17.6132 -17.4724 -17.4717
    11.5943  13.2941  13.5634  14.1528  14.2979  14.4723  16.6135  16.6216
    16.8620  17.8939

          k = 0.1759 0.1759 0.4396 (  4400 PWs)   bands (ev):

   -71.0966 -41.2712 -37.1830 -37.1635 -37.1630 -17.6492 -17.4690 -17.4681
    12.2513  12.9397  13.7391  14.0359  14.3887  14.6096  16.2476  16.5555
    16.6223  18.2298

          k = 0.1759 0.2638 0.2638 (  4410 PWs)   bands (ev):

   -71.0969 -41.2739 -37.1731 -37.1707 -37.1631 -17.5483 -17.5400 -17.4717
    11.4209  13.3522  13.7227  14.1098  14.1702  14.2332  16.7226  16.8788
    17.1987  17.8196

          k = 0.1759 0.2638 0.3517 (  4414 PWs)   bands (ev):

   -71.0964 -41.2675 -37.1794 -37.1717 -37.1627 -17.6043 -17.5368 -17.4658
    11.9943  13.2070  13.8632  14.0017  14.1912  14.3022  16.5050  16.7243
    17.1062  18.1069

          k = 0.1759 0.2638 0.4396 (  4408 PWs)   bands (ev):

   -71.0961 -41.2636 -37.1836 -37.1719 -37.1624 -17.6396 -17.5326 -17.4624
    12.4254  12.9702  13.8624  13.9390  14.2507  14.6618  16.1700  16.5894
    17.0294  18.2937

          k = 0.1759 0.3517 0.3517 (  4421 PWs)   bands (ev):

   -71.0958 -41.2607 -37.1804 -37.1789 -37.1620 -17.5983 -17.5935 -17.4601
    12.2927  13.0049  13.8787  13.9717  14.4295  14.4383  16.3949  16.5869
    17.3331  18.2504

          k = 0.1759 0.3517 0.4396 (  4410 PWs)   bands (ev):

   -71.0955 -41.2566 -37.1842 -37.1798 -37.1616 -17.6307 -17.5910 -17.4566
    12.4173  12.8705  13.8283  13.8668  14.6071  14.9789  16.1275  16.4574
    17.3980  18.4574

          k = 0.1759 0.4396 0.4396 (  4426 PWs)   bands (ev):

   -71.0952 -41.2525 -37.1847 -37.1845 -37.1612 -17.6258 -17.6251 -17.4532
    12.3581  12.7982  13.7528  13.7701  15.2166  15.2840  16.0282  16.1966
    17.5568  18.7122

          k = 0.2638 0.2638 0.2638 (  4401 PWs)   bands (ev):

   -71.0963 -41.2668 -37.1721 -37.1721 -37.1702 -17.5415 -17.5348 -17.5348
    11.9603  13.7433  13.7433  13.8103  13.9951  13.9951  16.7232  16.7232
    17.6080  17.6080

          k = 0.2638 0.2638 0.3517 (  4404 PWs)   bands (ev):

   -71.0958 -41.2603 -37.1791 -37.1712 -37.1711 -17.5966 -17.5310 -17.5301
    12.4881  13.4485  13.7548  13.8927  13.9753  14.1657  16.4866  16.5425
    17.4772  18.0358

          k = 0.2638 0.2638 0.4396 (  4420 PWs)   bands (ev):

   -71.0955 -41.2564 -37.1836 -37.1713 -37.1707 -17.6316 -17.5273 -17.5261
    12.8000  13.2096  13.7606  13.8297  14.0957  14.5271  16.1215  16.4338
    17.4309  18.3255

          k = 0.2638 0.3517 0.3517 (  4419 PWs)   bands (ev):

   -71.0953 -41.2537 -37.1793 -37.1786 -37.1705 -17.5908 -17.5882 -17.5247
    12.8543  13.3175  13.7973  13.8555  14.0381  14.2530  16.3474  16.3527
    17.7386  18.2107

          k = 0.2638 0.3517 0.4396 (  4424 PWs)   bands (ev):

   -71.0950 -41.2497 -37.1835 -37.1788 -37.1701 -17.6243 -17.5854 -17.5213
    12.9285  13.2219  13.7592  13.7914  14.2600  14.5965  16.0422  16.2801
    17.7921  18.4899

          k = 0.2638 0.4396 0.4396 (  4433 PWs)   bands (ev):

   -71.0947 -41.2458 -37.1836 -37.1835 -37.1697 -17.6202 -17.6198 -17.5180
    12.8894  13.1837  13.6996  13.7191  14.7217  14.7570  15.8978  16.1302
    17.9423  18.7445

          k = 0.3517 0.3517 0.3517 (  4410 PWs)   bands (ev):

   -71.0948 -41.2472 -37.1783 -37.1783 -37.1783 -17.5842 -17.5834 -17.5834
    13.3341  13.4894  13.7448  13.7448  14.0465  14.0465  16.1971  16.1971
    18.2161  18.2161

          k = 0.3517 0.3517 0.4396 (  4427 PWs)   bands (ev):

   -71.0945 -41.2434 -37.1829 -37.1781 -37.1778 -17.6185 -17.5805 -17.5798
    13.3389  13.4558  13.7476  13.8861  13.9712  14.3430  15.9643  16.1311
    18.2271  18.5702

          k = 0.3517 0.4396 0.4396 (  4427 PWs)   bands (ev):

   -71.0942 -41.2396 -37.1826 -37.1826 -37.1774 -17.6150 -17.6149 -17.5771
    13.4345  13.5272  13.6852  13.7611  14.2709  14.3253  15.8640  16.0094
    18.4175  18.7694

          k = 0.4396 0.4396 0.4396 (  4407 PWs)   bands (ev):

   -71.0939 -41.2360 -37.1820 -37.1820 -37.1820 -17.6120 -17.6120 -17.6119
    13.6216  13.7313  13.7313  14.0201  14.0331  14.0331  15.8556  15.8556
    18.7835  18.7835

     the Fermi energy is    15.6961 ev

!    total energy              =    -448.57933725 Ry
     estimated scf accuracy    <          3.9E-11 Ry
     smearing contrib. (-TS)   =       0.00002169 Ry
     internal energy E=F+TS    =    -448.57935894 Ry

     The total energy is F=E-TS. E is the sum of the following terms:
     one-electron contribution =    -164.56217390 Ry
     hartree contribution      =      96.16169364 Ry
     xc contribution           =     -52.72493030 Ry
     ewald contribution        =    -251.30241218 Ry
     one-center paw contrib.   =     -76.15153621 Ry

     convergence has been achieved in  34 iterations

     negative rho (up, down):  9.332E-04 0.000E+00

     Forces acting on atoms (cartesian axes, Ry/au):

     atom    1 type  1   force =     0.00000000    0.00000000    0.00000000
     atom    2 type  2   force =     0.00000000    0.00000000    0.00000000

     Total force =     0.000000     Total SCF correction =     0.000000


     Computing stress (Cartesian axis) and pressure


     negative rho (up, down):  9.332E-04 0.000E+00
          total   stress  (Ry/bohr**3)                   (kbar)     P=     -137.58
  -0.00093523   0.00000000   0.00000000         -137.58        0.00        0.00
   0.00000000  -0.00093523   0.00000000            0.00     -137.58        0.00
   0.00000000   0.00000000  -0.00093523            0.00        0.00     -137.58


     Writing all to output data dir ./TiFe.save/ :
     XML data file, charge density, pseudopotentials, collected wavefunctions

     init_run     :      2.51s CPU      2.73s WALL (       2 calls)
     electrons    :    120.60s CPU    126.40s WALL (       5 calls)
     update_pot   :      0.25s CPU      0.26s WALL (       3 calls)
     forces       :      1.19s CPU      1.26s WALL (       5 calls)
     stress       :      6.97s CPU      7.21s WALL (       5 calls)

     Called by init_run:
     wfcinit      :      0.72s CPU      0.83s WALL (       2 calls)
     potinit      :      0.55s CPU      0.62s WALL (       2 calls)
     hinit0       :      0.89s CPU      0.90s WALL (       2 calls)

     Called by electrons:
     c_bands      :     74.40s CPU     76.00s WALL (     108 calls)
     sum_band     :     25.69s CPU     27.91s WALL (     108 calls)
     v_of_rho     :      2.45s CPU      2.63s WALL (     112 calls)
     newd         :     12.84s CPU     14.53s WALL (     112 calls)
     PAW_pot      :      5.77s CPU      5.89s WALL (     115 calls)
     mix_rho      :      0.27s CPU      0.29s WALL (     108 calls)

     Called by c_bands:
     init_us_2    :      1.91s CPU      1.97s WALL (   12936 calls)
     cegterg      :     71.12s CPU     72.61s WALL (    6048 calls)

     Called by *egterg:
     cdiaghg      :      7.22s CPU      7.46s WALL (   23500 calls)
     h_psi        :     56.50s CPU     57.72s WALL (   23836 calls)
     s_psi        :      1.27s CPU      1.30s WALL (   23836 calls)
     g_psi        :      0.30s CPU      0.31s WALL (   17676 calls)

     Called by h_psi:
     h_psi:calbec :      1.86s CPU      1.90s WALL (   23836 calls)
     vloc_psi     :     53.12s CPU     54.27s WALL (   23836 calls)
     add_vuspsi   :      1.30s CPU      1.33s WALL (   23836 calls)

     General routines
     calbec       :      2.89s CPU      2.96s WALL (   34812 calls)
     fft          :      1.99s CPU      2.23s WALL (    1575 calls)
     ffts         :      0.41s CPU      0.42s WALL (     220 calls)
     fftw         :     49.34s CPU     50.36s WALL (  675438 calls)
     interpolate  :      0.51s CPU      0.53s WALL (     112 calls)

     Parallel routines

     PWSCF        :    132.36s CPU    139.39s WALL


   This run was terminated on:  15:17:34  25Oct2025            

=------------------------------------------------------------------------------=
   JOB DONE.
=------------------------------------------------------------------------------=
