
     Program PWSCF v.7.4 starts on 25Oct2025 at 15:42:45 

     This program is part of the open-source Quantum ESPRESSO suite
     for quantum simulation of materials; please cite
         "P. Giannozzi et al., J. Phys.:Condens. Matter 21 395502 (2009);
         "P. Giannozzi et al., J. Phys.:Condens. Matter 29 465901 (2017);
         "P. Giannozzi et al., J. Chem. Phys. 152 154105 (2020);
          URL http://www.quantum-espresso.org", 
     in publications or presentations arising from this work. More details at
     http://www.quantum-espresso.org/quote

     Parallel version (MPI & OpenMP), running on       8 processor cores
     Number of MPI processes:                 8
     Threads/MPI process:                     1

     MPI processes distributed on     1 nodes
     210541 MiB available memory on the printing compute node when the environment starts

     Reading input from TiFe_relaxed9.in

     Current dimensions of program PWSCF are:
     Max number of different atomic species (ntypx) = 10
     Max number of k-points (npk) =  40000
     Max angular momentum in pseudopotentials (lmaxx) =  4
     file Fe.pbe-spn-kjpaw_psl.0.2.1.UPF: wavefunction(s)  3D renormalized

     IMPORTANT: XC functional enforced from input :
     Exchange-correlation= PBE
                           (   1   4   3   4   0   0   0)
     Any further DFT definition will be discarded
     Please, verify this is what you really want

     Message from routine setup:
     using ibrav=0 with symmetry is DISCOURAGED, use correct ibrav instead

     R & G space division:  proc/nbgrp/npool/nimage =       8
     Subspace diagonalization in iterative solution of the eigenvalue problem:
     a serial algorithm will be used


     Parallelization info
     --------------------
     sticks:   dense  smooth     PW     G-vecs:    dense   smooth      PW
     Min         532     151     43                26154     3989     617
     Max         533     152     44                26155     3993     620
     Sum        4257    1209    349               209233    31919    4945

     Using Slab Decomposition



     bravais-lattice index     =            0
     lattice parameter (alat)  =       5.5533  a.u.
     unit-cell volume          =     171.2590 (a.u.)^3
     number of atoms/cell      =            2
     number of atomic types    =            2
     number of electrons       =        28.00
     number of Kohn-Sham states=           18
     kinetic-energy cutoff     =     124.0000  Ry
     charge density cutoff     =    1736.0000  Ry
     scf convergence threshold =      1.0E-08
     mixing beta               =       0.7000
     number of iterations used =            8  plain     mixing
     energy convergence thresh.=      1.0E-04
     force convergence thresh. =      1.0E-03
     press convergence thresh. =      5.0E-01
     Exchange-correlation= PBE
                           (   1   4   3   4   0   0   0)
     nstep                     =           50


     celldm(1)=   5.553300  celldm(2)=   0.000000  celldm(3)=   0.000000
     celldm(4)=   0.000000  celldm(5)=   0.000000  celldm(6)=   0.000000

     crystal axes: (cart. coord. in units of alat)
               a(1) = (   1.000000   0.000000   0.000000 )  
               a(2) = (   0.000000   1.000000   0.000000 )  
               a(3) = (   0.000000   0.000000   1.000000 )  

     reciprocal axes: (cart. coord. in units 2 pi/alat)
               b(1) = (  1.000000  0.000000  0.000000 )  
               b(2) = (  0.000000  1.000000  0.000000 )  
               b(3) = (  0.000000  0.000000  1.000000 )  


     PseudoPot. # 1 for Fe read from file:
     ../../pseudos/Fe.pbe-spn-kjpaw_psl.0.2.1.UPF
     MD5 check sum: e86618425769142926afa95317d90200
     Pseudo is Projector augmented-wave + core cor, Zval = 16.0
     Generated using "atomic" code by A. Dal Corso  v.5.0.99 svn rev. 10869
     Shape of augmentation charge: PSQ
     Using radial grid of 1191 points,  6 beta functions with: 
                l(1) =   0
                l(2) =   0
                l(3) =   1
                l(4) =   1
                l(5) =   2
                l(6) =   2
     Q(r) pseudized with 0 coefficients 


     PseudoPot. # 2 for Ti read from file:
     ../../pseudos/ti_pbe_v1.4.uspp.F.UPF
     MD5 check sum: 88a00a6731bd790ddea75d31a80cb452
     Pseudo is Ultrasoft + core correction, Zval = 12.0
     Generated by new atomic code, or converted to UPF format
     Using radial grid of  851 points,  6 beta functions with: 
                l(1) =   0
                l(2) =   0
                l(3) =   1
                l(4) =   1
                l(5) =   2
                l(6) =   2
     Q(r) pseudized with  6 coefficients,  rinner =    1.000   1.000   1.000
                                                       1.000   1.000

     atomic species   valence    mass     pseudopotential
     Fe               16.00    55.84500     Fe( 1.00)
     Ti               12.00    47.86700     Ti( 1.00)

     48 Sym. Ops., with inversion, found



   Cartesian axes

     site n.     atom                  positions (alat units)
         1        Fe     tau(   1) = (   0.5000000   0.5000000   0.5000000  )
         2        Ti     tau(   2) = (   0.0000000   0.0000000   0.0000000  )

     number of k points=    56  Marzari-Vanderbilt smearing, width (Ry)=  0.0050
                       cart. coord. in units 2pi/alat
        k(    1) = (   0.0000000   0.0000000   0.0000000), wk =   0.0015026
        k(    2) = (   0.0000000   0.0000000   0.0909091), wk =   0.0090158
        k(    3) = (   0.0000000   0.0000000   0.1818182), wk =   0.0090158
        k(    4) = (   0.0000000   0.0000000   0.2727273), wk =   0.0090158
        k(    5) = (   0.0000000   0.0000000   0.3636364), wk =   0.0090158
        k(    6) = (   0.0000000   0.0000000   0.4545455), wk =   0.0090158
        k(    7) = (   0.0000000   0.0909091   0.0909091), wk =   0.0180316
        k(    8) = (   0.0000000   0.0909091   0.1818182), wk =   0.0360631
        k(    9) = (   0.0000000   0.0909091   0.2727273), wk =   0.0360631
        k(   10) = (   0.0000000   0.0909091   0.3636364), wk =   0.0360631
        k(   11) = (   0.0000000   0.0909091   0.4545455), wk =   0.0360631
        k(   12) = (   0.0000000   0.1818182   0.1818182), wk =   0.0180316
        k(   13) = (   0.0000000   0.1818182   0.2727273), wk =   0.0360631
        k(   14) = (   0.0000000   0.1818182   0.3636364), wk =   0.0360631
        k(   15) = (   0.0000000   0.1818182   0.4545455), wk =   0.0360631
        k(   16) = (   0.0000000   0.2727273   0.2727273), wk =   0.0180316
        k(   17) = (   0.0000000   0.2727273   0.3636364), wk =   0.0360631
        k(   18) = (   0.0000000   0.2727273   0.4545455), wk =   0.0360631
        k(   19) = (   0.0000000   0.3636364   0.3636364), wk =   0.0180316
        k(   20) = (   0.0000000   0.3636364   0.4545455), wk =   0.0360631
        k(   21) = (   0.0000000   0.4545455   0.4545455), wk =   0.0180316
        k(   22) = (   0.0909091   0.0909091   0.0909091), wk =   0.0120210
        k(   23) = (   0.0909091   0.0909091   0.1818182), wk =   0.0360631
        k(   24) = (   0.0909091   0.0909091   0.2727273), wk =   0.0360631
        k(   25) = (   0.0909091   0.0909091   0.3636364), wk =   0.0360631
        k(   26) = (   0.0909091   0.0909091   0.4545455), wk =   0.0360631
        k(   27) = (   0.0909091   0.1818182   0.1818182), wk =   0.0360631
        k(   28) = (   0.0909091   0.1818182   0.2727273), wk =   0.0721262
        k(   29) = (   0.0909091   0.1818182   0.3636364), wk =   0.0721262
        k(   30) = (   0.0909091   0.1818182   0.4545455), wk =   0.0721262
        k(   31) = (   0.0909091   0.2727273   0.2727273), wk =   0.0360631
        k(   32) = (   0.0909091   0.2727273   0.3636364), wk =   0.0721262
        k(   33) = (   0.0909091   0.2727273   0.4545455), wk =   0.0721262
        k(   34) = (   0.0909091   0.3636364   0.3636364), wk =   0.0360631
        k(   35) = (   0.0909091   0.3636364   0.4545455), wk =   0.0721262
        k(   36) = (   0.0909091   0.4545455   0.4545455), wk =   0.0360631
        k(   37) = (   0.1818182   0.1818182   0.1818182), wk =   0.0120210
        k(   38) = (   0.1818182   0.1818182   0.2727273), wk =   0.0360631
        k(   39) = (   0.1818182   0.1818182   0.3636364), wk =   0.0360631
        k(   40) = (   0.1818182   0.1818182   0.4545455), wk =   0.0360631
        k(   41) = (   0.1818182   0.2727273   0.2727273), wk =   0.0360631
        k(   42) = (   0.1818182   0.2727273   0.3636364), wk =   0.0721262
        k(   43) = (   0.1818182   0.2727273   0.4545455), wk =   0.0721262
        k(   44) = (   0.1818182   0.3636364   0.3636364), wk =   0.0360631
        k(   45) = (   0.1818182   0.3636364   0.4545455), wk =   0.0721262
        k(   46) = (   0.1818182   0.4545455   0.4545455), wk =   0.0360631
        k(   47) = (   0.2727273   0.2727273   0.2727273), wk =   0.0120210
        k(   48) = (   0.2727273   0.2727273   0.3636364), wk =   0.0360631
        k(   49) = (   0.2727273   0.2727273   0.4545455), wk =   0.0360631
        k(   50) = (   0.2727273   0.3636364   0.3636364), wk =   0.0360631
        k(   51) = (   0.2727273   0.3636364   0.4545455), wk =   0.0721262
        k(   52) = (   0.2727273   0.4545455   0.4545455), wk =   0.0360631
        k(   53) = (   0.3636364   0.3636364   0.3636364), wk =   0.0120210
        k(   54) = (   0.3636364   0.3636364   0.4545455), wk =   0.0360631
        k(   55) = (   0.3636364   0.4545455   0.4545455), wk =   0.0360631
        k(   56) = (   0.4545455   0.4545455   0.4545455), wk =   0.0120210

     Dense  grid:   209233 G-vectors     FFT dimensions: (  75,  75,  75)

     Smooth grid:    31919 G-vectors     FFT dimensions: (  40,  40,  40)

     Estimated max dynamical RAM per process >     117.03 MB

     Estimated total dynamical RAM >     936.25 MB

     Check: negative core charge=   -0.000002

     Initial potential from superposition of free atoms

     starting charge      26.9995, renormalised to      28.0000

     negative rho (up, down):  1.347E-03 0.000E+00
     Starting wfcs are   23 randomized atomic wfcs
     Checking if some PAW data can be deallocated... 

     total cpu time spent up to now is        1.4 secs

     per-process dynamical memory:   142.7 Mb

     Self-consistent Calculation

     iteration #  1     ecut=   124.00 Ry     beta= 0.70
     Davidson diagonalization with overlap
     ethr =  1.00E-02,  avg # of iterations =  2.1

     negative rho (up, down):  7.937E-05 0.000E+00

     total cpu time spent up to now is        2.4 secs

     total energy              =    -434.89047275 Ry
     estimated scf accuracy    <      17.46535633 Ry

     iteration #  2     ecut=   124.00 Ry     beta= 0.70
     Davidson diagonalization with overlap
     ethr =  1.00E-02,  avg # of iterations =  6.0

     negative rho (up, down):  2.353E-05 0.000E+00

     total cpu time spent up to now is        4.0 secs

     total energy              =    -448.51249463 Ry
     estimated scf accuracy    <      66.10195194 Ry

     iteration #  3     ecut=   124.00 Ry     beta= 0.70
     Davidson diagonalization with overlap
     ethr =  1.00E-02,  avg # of iterations =  3.1

     negative rho (up, down):  2.377E-04 0.000E+00

     total cpu time spent up to now is        5.2 secs

     total energy              =    -448.59203340 Ry
     estimated scf accuracy    <      16.77106202 Ry

     iteration #  4     ecut=   124.00 Ry     beta= 0.70
     Davidson diagonalization with overlap
     ethr =  1.00E-02,  avg # of iterations =  2.2

     negative rho (up, down):  2.766E-04 0.000E+00

     total cpu time spent up to now is        6.2 secs

     total energy              =    -449.11252552 Ry
     estimated scf accuracy    <       4.68111793 Ry

     iteration #  5     ecut=   124.00 Ry     beta= 0.70
     Davidson diagonalization with overlap
     ethr =  1.00E-02,  avg # of iterations =  1.0

     negative rho (up, down):  3.285E-04 0.000E+00

     total cpu time spent up to now is        7.0 secs

     total energy              =    -449.11683000 Ry
     estimated scf accuracy    <       4.27451567 Ry

     iteration #  6     ecut=   124.00 Ry     beta= 0.70
     Davidson diagonalization with overlap
     ethr =  1.00E-02,  avg # of iterations =  1.0

     negative rho (up, down):  1.118E-03 0.000E+00

     total cpu time spent up to now is        7.9 secs

     total energy              =    -447.89068457 Ry
     estimated scf accuracy    <       4.50163493 Ry

     iteration #  7     ecut=   124.00 Ry     beta= 0.70
     Davidson diagonalization with overlap
     ethr =  1.00E-02,  avg # of iterations =  3.4

     negative rho (up, down):  1.015E-03 0.000E+00

     total cpu time spent up to now is        8.9 secs

     total energy              =    -448.58840447 Ry
     estimated scf accuracy    <       3.89651472 Ry

     iteration #  8     ecut=   124.00 Ry     beta= 0.70
     Davidson diagonalization with overlap
     ethr =  1.00E-02,  avg # of iterations =  1.0

     negative rho (up, down):  7.976E-04 0.000E+00

     total cpu time spent up to now is        9.8 secs

     total energy              =    -448.43997417 Ry
     estimated scf accuracy    <       1.27715295 Ry

     iteration #  9     ecut=   124.00 Ry     beta= 0.70
     Davidson diagonalization with overlap
     ethr =  4.56E-03,  avg # of iterations =  1.9

     negative rho (up, down):  7.977E-04 0.000E+00

     total cpu time spent up to now is       10.7 secs

     total energy              =    -448.60539805 Ry
     estimated scf accuracy    <       0.26863249 Ry

     iteration # 10     ecut=   124.00 Ry     beta= 0.70
     Davidson diagonalization with overlap
     ethr =  9.59E-04,  avg # of iterations =  1.3

     negative rho (up, down):  8.075E-04 0.000E+00

     total cpu time spent up to now is       11.6 secs

     total energy              =    -448.61289738 Ry
     estimated scf accuracy    <       0.28159432 Ry

     iteration # 11     ecut=   124.00 Ry     beta= 0.70
     Davidson diagonalization with overlap
     ethr =  9.59E-04,  avg # of iterations =  1.0

     negative rho (up, down):  7.617E-04 0.000E+00

     total cpu time spent up to now is       12.5 secs

     total energy              =    -448.67957078 Ry
     estimated scf accuracy    <       0.34549008 Ry

     iteration # 12     ecut=   124.00 Ry     beta= 0.70
     Davidson diagonalization with overlap
     ethr =  9.59E-04,  avg # of iterations =  1.8

     negative rho (up, down):  7.932E-04 0.000E+00

     total cpu time spent up to now is       13.4 secs

     total energy              =    -448.62277485 Ry
     estimated scf accuracy    <       1.28404054 Ry

     iteration # 13     ecut=   124.00 Ry     beta= 0.70
     Davidson diagonalization with overlap
     ethr =  9.59E-04,  avg # of iterations =  1.2

     negative rho (up, down):  9.274E-04 0.000E+00

     total cpu time spent up to now is       14.3 secs

     total energy              =    -448.63537755 Ry
     estimated scf accuracy    <       0.58154385 Ry

     iteration # 14     ecut=   124.00 Ry     beta= 0.70
     Davidson diagonalization with overlap
     ethr =  9.59E-04,  avg # of iterations =  1.0

     negative rho (up, down):  1.025E-03 0.000E+00

     total cpu time spent up to now is       15.2 secs

     total energy              =    -448.61055071 Ry
     estimated scf accuracy    <       0.50368914 Ry

     iteration # 15     ecut=   124.00 Ry     beta= 0.70
     Davidson diagonalization with overlap
     ethr =  9.59E-04,  avg # of iterations =  1.0

     negative rho (up, down):  1.032E-03 0.000E+00

     total cpu time spent up to now is       16.1 secs

     total energy              =    -448.61143942 Ry
     estimated scf accuracy    <       0.31963621 Ry

     iteration # 16     ecut=   124.00 Ry     beta= 0.70
     Davidson diagonalization with overlap
     ethr =  9.59E-04,  avg # of iterations =  1.0

     negative rho (up, down):  1.077E-03 0.000E+00

     total cpu time spent up to now is       16.9 secs

     total energy              =    -448.59313187 Ry
     estimated scf accuracy    <       0.28283031 Ry

     iteration # 17     ecut=   124.00 Ry     beta= 0.70
     Davidson diagonalization with overlap
     ethr =  9.59E-04,  avg # of iterations =  1.0

     negative rho (up, down):  1.074E-03 0.000E+00

     total cpu time spent up to now is       17.8 secs

     total energy              =    -448.60188466 Ry
     estimated scf accuracy    <       0.07727334 Ry

     iteration # 18     ecut=   124.00 Ry     beta= 0.70
     Davidson diagonalization with overlap
     ethr =  2.76E-04,  avg # of iterations =  1.6

     negative rho (up, down):  9.925E-04 0.000E+00

     total cpu time spent up to now is       18.7 secs

     total energy              =    -448.58361171 Ry
     estimated scf accuracy    <       0.14906513 Ry

     iteration # 19     ecut=   124.00 Ry     beta= 0.70
     Davidson diagonalization with overlap
     ethr =  2.76E-04,  avg # of iterations =  1.1

     negative rho (up, down):  9.436E-04 0.000E+00

     total cpu time spent up to now is       19.6 secs

     total energy              =    -448.59412596 Ry
     estimated scf accuracy    <       0.04848599 Ry

     iteration # 20     ecut=   124.00 Ry     beta= 0.70
     Davidson diagonalization with overlap
     ethr =  1.73E-04,  avg # of iterations =  1.1

     negative rho (up, down):  1.023E-03 0.000E+00

     total cpu time spent up to now is       20.5 secs

     total energy              =    -448.57755582 Ry
     estimated scf accuracy    <       0.17402916 Ry

     iteration # 21     ecut=   124.00 Ry     beta= 0.70
     Davidson diagonalization with overlap
     ethr =  1.73E-04,  avg # of iterations =  2.1

     negative rho (up, down):  1.012E-03 0.000E+00

     total cpu time spent up to now is       21.4 secs

     total energy              =    -448.58650556 Ry
     estimated scf accuracy    <       0.00384582 Ry

     iteration # 22     ecut=   124.00 Ry     beta= 0.70
     Davidson diagonalization with overlap
     ethr =  1.37E-05,  avg # of iterations =  4.6

     negative rho (up, down):  1.004E-03 0.000E+00

     total cpu time spent up to now is       22.5 secs

     total energy              =    -448.58691254 Ry
     estimated scf accuracy    <       0.00198474 Ry

     iteration # 23     ecut=   124.00 Ry     beta= 0.70
     Davidson diagonalization with overlap
     ethr =  7.09E-06,  avg # of iterations =  1.5

     negative rho (up, down):  1.006E-03 0.000E+00

     total cpu time spent up to now is       23.4 secs

     total energy              =    -448.58700272 Ry
     estimated scf accuracy    <       0.00176934 Ry

     iteration # 24     ecut=   124.00 Ry     beta= 0.70
     Davidson diagonalization with overlap
     ethr =  6.32E-06,  avg # of iterations =  1.0

     negative rho (up, down):  9.532E-04 0.000E+00

     total cpu time spent up to now is       24.2 secs

     total energy              =    -448.58622429 Ry
     estimated scf accuracy    <       0.00189335 Ry

     iteration # 25     ecut=   124.00 Ry     beta= 0.70
     Davidson diagonalization with overlap
     ethr =  6.32E-06,  avg # of iterations =  2.5

     negative rho (up, down):  9.519E-04 0.000E+00

     total cpu time spent up to now is       25.3 secs

     total energy              =    -448.58664002 Ry
     estimated scf accuracy    <       0.00120783 Ry

     iteration # 26     ecut=   124.00 Ry     beta= 0.70
     Davidson diagonalization with overlap
     ethr =  4.31E-06,  avg # of iterations =  1.0

     negative rho (up, down):  9.350E-04 0.000E+00

     total cpu time spent up to now is       26.2 secs

     total energy              =    -448.58685540 Ry
     estimated scf accuracy    <       0.00115497 Ry

     iteration # 27     ecut=   124.00 Ry     beta= 0.70
     Davidson diagonalization with overlap
     ethr =  4.12E-06,  avg # of iterations =  2.0

     negative rho (up, down):  9.665E-04 0.000E+00

     total cpu time spent up to now is       27.1 secs

     total energy              =    -448.58628945 Ry
     estimated scf accuracy    <       0.00358735 Ry

     iteration # 28     ecut=   124.00 Ry     beta= 0.70
     Davidson diagonalization with overlap
     ethr =  4.12E-06,  avg # of iterations =  2.0

     negative rho (up, down):  9.722E-04 0.000E+00

     total cpu time spent up to now is       28.0 secs

     total energy              =    -448.58652078 Ry
     estimated scf accuracy    <       0.00004729 Ry

     iteration # 29     ecut=   124.00 Ry     beta= 0.70
     Davidson diagonalization with overlap
     ethr =  1.69E-07,  avg # of iterations =  4.7

     negative rho (up, down):  9.640E-04 0.000E+00

     total cpu time spent up to now is       29.2 secs

     total energy              =    -448.58653251 Ry
     estimated scf accuracy    <       0.00024121 Ry

     iteration # 30     ecut=   124.00 Ry     beta= 0.70
     Davidson diagonalization with overlap
     ethr =  1.69E-07,  avg # of iterations =  3.8

     negative rho (up, down):  9.643E-04 0.000E+00

     total cpu time spent up to now is       30.3 secs

     total energy              =    -448.58655217 Ry
     estimated scf accuracy    <       0.00000018 Ry

     iteration # 31     ecut=   124.00 Ry     beta= 0.70
     Davidson diagonalization with overlap
     ethr =  6.52E-10,  avg # of iterations =  5.9

     negative rho (up, down):  9.640E-04 0.000E+00

     total cpu time spent up to now is       31.7 secs

     total energy              =    -448.58655245 Ry
     estimated scf accuracy    <       0.00000124 Ry

     iteration # 32     ecut=   124.00 Ry     beta= 0.70
     Davidson diagonalization with overlap
     ethr =  6.52E-10,  avg # of iterations =  4.0

     negative rho (up, down):  9.638E-04 0.000E+00

     total cpu time spent up to now is       32.7 secs

     total energy              =    -448.58655251 Ry
     estimated scf accuracy    <       0.00000015 Ry

     iteration # 33     ecut=   124.00 Ry     beta= 0.70
     Davidson diagonalization with overlap
     ethr =  5.50E-10,  avg # of iterations =  2.0

     negative rho (up, down):  9.641E-04 0.000E+00

     total cpu time spent up to now is       33.7 secs

     total energy              =    -448.58655246 Ry
     estimated scf accuracy    <       0.00000035 Ry

     iteration # 34     ecut=   124.00 Ry     beta= 0.70
     Davidson diagonalization with overlap
     ethr =  5.50E-10,  avg # of iterations =  2.3

     negative rho (up, down):  9.642E-04 0.000E+00

     total cpu time spent up to now is       34.6 secs

     total energy              =    -448.58655249 Ry
     estimated scf accuracy    <       0.00000002 Ry

     iteration # 35     ecut=   124.00 Ry     beta= 0.70
     Davidson diagonalization with overlap
     ethr =  7.32E-11,  avg # of iterations =  3.8

     negative rho (up, down):  9.641E-04 0.000E+00

     total cpu time spent up to now is       35.7 secs

     total energy              =    -448.58655249 Ry
     estimated scf accuracy    <       0.00000003 Ry

     iteration # 36     ecut=   124.00 Ry     beta= 0.70
     Davidson diagonalization with overlap
     ethr =  7.32E-11,  avg # of iterations =  2.8

     negative rho (up, down):  9.642E-04 0.000E+00

     total cpu time spent up to now is       36.6 secs

     End of self-consistent calculation

          k = 0.0000 0.0000 0.0000 (  3911 PWs)   bands (ev):

   -69.2103 -39.1517 -35.2713 -35.2713 -35.2713 -15.2460 -15.2460 -15.2460
    10.1528  13.8639  13.8639  16.6568  16.6568  16.6568  18.9983  18.9983
    20.9366  20.9366

          k = 0.0000 0.0000 0.0909 (  3947 PWs)   bands (ev):

   -69.2100 -39.1496 -35.2739 -35.2710 -35.2710 -15.2752 -15.2442 -15.2442
    10.3257  13.9470  13.9536  16.6441  16.6441  16.6947  18.8927  19.0380
    20.6858  20.6858

          k = 0.0000 0.0000 0.1818 (  3964 PWs)   bands (ev):

   -69.2093 -39.1439 -35.2806 -35.2699 -35.2699 -15.3532 -15.2395 -15.2395
    10.8272  14.1866  14.1906  16.6148  16.6148  16.8008  18.5875  19.1279
    20.1022  20.1022

          k = 0.0000 0.0000 0.2727 (  3988 PWs)   bands (ev):

   -69.2083 -39.1364 -35.2894 -35.2686 -35.2686 -15.4540 -15.2334 -15.2334
    11.6057  14.4523  14.5738  16.5899  16.5899  16.9516  18.1202  19.1616
    19.4564  19.4564

          k = 0.0000 0.0000 0.3636 (  4008 PWs)   bands (ev):

   -69.2074 -39.1296 -35.2974 -35.2674 -35.2674 -15.5455 -15.2277 -15.2277
    12.5660  14.5652  15.0485  16.5850  16.5850  17.1052  17.5653  18.9275
    18.9275  18.9715

          k = 0.0000 0.0000 0.4545 (  3992 PWs)   bands (ev):

   -69.2069 -39.1255 -35.3021 -35.2666 -35.2666 -15.5993 -15.2243 -15.2243
    13.5347  14.3044  15.4744  16.5939  16.5939  17.0903  17.2053  18.6282
    18.6282  18.6588

          k = 0.0000 0.0909 0.0909 (  3966 PWs)   bands (ev):

   -69.2097 -39.1473 -35.2748 -35.2724 -35.2706 -15.2763 -15.2701 -15.2424
    10.4951  14.0265  14.0436  16.5617  16.6235  16.7909  18.8775  19.0087
    20.4104  20.4353

          k = 0.0000 0.0909 0.1818 (  3978 PWs)   bands (ev):

   -69.2090 -39.1413 -35.2811 -35.2724 -35.2696 -15.3507 -15.2674 -15.2375
    10.9856  14.2440  14.2906  16.4813  16.5732  16.9084  18.6426  19.0872
    19.8667  19.9001

          k = 0.0000 0.0909 0.2727 (  3995 PWs)   bands (ev):

   -69.2080 -39.1334 -35.2900 -35.2716 -35.2682 -15.4505 -15.2605 -15.2310
    11.7434  14.5128  14.6445  16.4377  16.5167  16.9935  18.2447  19.0577
    19.3653  19.4002

          k = 0.0000 0.0909 0.3636 (  3991 PWs)   bands (ev):

   -69.2071 -39.1261 -35.2982 -35.2709 -35.2670 -15.5410 -15.2540 -15.2251
    12.6707  14.6170  15.0808  16.4435  16.4656  16.9997  17.7899  18.6460
    19.0665  19.2133

          k = 0.0000 0.0909 0.4545 (  3999 PWs)   bands (ev):

   -69.2066 -39.1218 -35.3030 -35.2704 -35.2663 -15.5943 -15.2502 -15.2216
    13.5943  14.3519  15.4692  16.3968  16.4805  16.9451  17.4633  18.3527
    18.9324  19.0197

          k = 0.0000 0.1818 0.1818 (  3972 PWs)   bands (ev):

   -69.2083 -39.1343 -35.2840 -35.2772 -35.2686 -15.3518 -15.3342 -15.2320
    11.4401  14.3900  14.5687  16.3070  16.4778  16.9857  18.6949  19.0459
    19.3497  19.5759

          k = 0.0000 0.1818 0.2727 (  4003 PWs)   bands (ev):

   -69.2073 -39.1252 -35.2920 -35.2794 -35.2673 -15.4412 -15.3324 -15.2248
    12.1275  14.5565  14.9462  16.1858  16.3868  16.9101  18.5209  18.8014
    19.2048  19.3971

          k = 0.0000 0.1818 0.3636 (  3997 PWs)   bands (ev):

   -69.2064 -39.1168 -35.3004 -35.2802 -35.2661 -15.5290 -15.3241 -15.2182
    12.9354  14.5943  15.3322  16.1499  16.3572  16.7002  18.2182  18.4617
    19.3303  19.4171

          k = 0.0000 0.1818 0.4545 (  3990 PWs)   bands (ev):

   -69.2059 -39.1118 -35.3055 -35.2806 -35.2654 -15.5808 -15.3190 -15.2143
    13.6841  14.3630  15.6125  16.2009  16.3901  16.4819  18.0481  18.2166
    19.3519  19.5140

          k = 0.0000 0.2727 0.2727 (  4000 PWs)   bands (ev):

   -69.2063 -39.1144 -35.2962 -35.2880 -35.2661 -15.4376 -15.4171 -15.2167
    12.6688  14.5348  15.3963  15.9775  16.3399  16.6425  18.5789  18.7502
    19.1053  19.5704

          k = 0.0000 0.2727 0.3636 (  3993 PWs)   bands (ev):

   -69.2054 -39.1045 -35.3035 -35.2923 -35.2649 -15.5134 -15.4148 -15.2091
    13.2266  14.4166  15.8407  15.8678  16.3180  16.4951  18.3958  18.7292
    19.2749  19.8465

          k = 0.0000 0.2727 0.4545 (  3996 PWs)   bands (ev):

   -69.2049 -39.0986 -35.3088 -35.2939 -35.2643 -15.5632 -15.4082 -15.2047
    13.6460  14.2282  15.8808  16.0551  16.0845  16.8466  18.1510  18.6845
    19.4869  20.0942

          k = 0.0000 0.3636 0.3636 (  4002 PWs)   bands (ev):

   -69.2046 -39.0932 -35.3073 -35.3025 -35.2639 -15.5040 -15.4922 -15.2008
    13.4198  14.2078  15.6811  15.9708  16.4456  16.8939  18.5222  19.0881
    19.1103  20.2512

          k = 0.0000 0.3636 0.4545 (  3999 PWs)   bands (ev):

   -69.2041 -39.0865 -35.3119 -35.3062 -35.2632 -15.5469 -15.4893 -15.1958
    13.5039  14.0682  15.6294  15.7309  16.8140  17.5391  18.2827  19.1483
    19.3230  20.5545

          k = 0.0000 0.4545 0.4545 (  3998 PWs)   bands (ev):

   -69.2035 -39.0793 -35.3139 -35.3133 -35.2626 -15.5379 -15.5363 -15.1906
    13.3946  13.9723  15.5085  15.5425  17.5106  17.9878  18.6670  18.8520
    19.4119  20.8262

          k = 0.0909 0.0909 0.0909 (  3959 PWs)   bands (ev):

   -69.2095 -39.1450 -35.2744 -35.2744 -35.2711 -15.2768 -15.2683 -15.2683
    10.6615  14.1185  14.1185  16.5391  16.5391  16.8681  18.9295  18.9295
    19.9929  20.6652

          k = 0.0909 0.0909 0.1818 (  3966 PWs)   bands (ev):

   -69.2087 -39.1386 -35.2813 -35.2733 -35.2710 -15.3482 -15.2670 -15.2635
    11.1426  14.3361  14.3554  16.4287  16.4796  16.9503  18.7012  19.0493
    19.5188  20.0789

          k = 0.0909 0.0909 0.2727 (  3992 PWs)   bands (ev):

   -69.2077 -39.1303 -35.2905 -35.2720 -35.2707 -15.4470 -15.2590 -15.2572
    11.8826  14.6168  14.6736  16.3700  16.3987  16.9454  18.3564  19.0006
    19.3237  19.4428

          k = 0.0909 0.0909 0.3636 (  3994 PWs)   bands (ev):

   -69.2069 -39.1227 -35.2989 -35.2707 -35.2704 -15.5367 -15.2515 -15.2514
    12.7810  14.7008  15.0813  16.2989  16.4005  16.8595  17.9712  18.7163
    18.9369  19.4203

          k = 0.0909 0.0909 0.4545 (  4007 PWs)   bands (ev):

   -69.2063 -39.1181 -35.3038 -35.2702 -35.2699 -15.5895 -15.2480 -15.2470
    13.6656  14.4197  15.4383  16.1745  16.5156  16.7699  17.6949  18.4315
    18.6598  19.5237

          k = 0.0909 0.1818 0.1818 (  3984 PWs)   bands (ev):

   -69.2080 -39.1314 -35.2836 -35.2780 -35.2712 -15.3485 -15.3323 -15.2593
    11.5926  14.4938  14.6188  16.2700  16.3702  16.9131  18.7644  19.0172
    19.2359  19.7949

          k = 0.0909 0.1818 0.2727 (  3994 PWs)   bands (ev):

   -69.2070 -39.1221 -35.2920 -35.2795 -35.2705 -15.4379 -15.3300 -15.2517
    12.2705  14.6757  14.9647  16.1421  16.2715  16.7315  18.6110  18.9229
    19.2408  19.4560

          k = 0.0909 0.1818 0.3636 (  4001 PWs)   bands (ev):

   -69.2061 -39.1134 -35.3007 -35.2800 -35.2697 -15.5252 -15.3216 -15.2446
    13.0616  14.7215  15.2859  16.0686  16.2634  16.5479  18.3725  18.5771
    19.1013  19.7200

          k = 0.0909 0.1818 0.4545 (  3993 PWs)   bands (ev):

   -69.2056 -39.1083 -35.3060 -35.2802 -35.2692 -15.5767 -15.3165 -15.2403
    13.7875  14.4740  15.5175  16.0018  16.3647  16.4909  18.1992  18.2872
    18.8992  20.1084

          k = 0.0909 0.2727 0.2727 (  3989 PWs)   bands (ev):

   -69.2061 -39.1113 -35.2957 -35.2883 -35.2695 -15.4338 -15.4152 -15.2433
    12.8158  14.6587  15.4058  15.9390  16.2101  16.4306  18.6963  18.9064
    19.0874  19.7048

          k = 0.0909 0.2727 0.3636 (  3985 PWs)   bands (ev):

   -69.2052 -39.1013 -35.3033 -35.2922 -35.2686 -15.5102 -15.4124 -15.2356
    13.3704  14.5419  15.7742  15.8302  16.2030  16.3600  18.4781  18.8194
    19.1583  20.1173

          k = 0.0909 0.2727 0.4545 (  4006 PWs)   bands (ev):

   -69.2047 -39.0954 -35.3089 -35.2935 -35.2680 -15.5599 -15.4059 -15.2309
    13.7756  14.3545  15.7972  15.8477  16.1550  16.7541  18.1884  18.7888
    19.0873  20.6003

          k = 0.0909 0.3636 0.3636 (  3992 PWs)   bands (ev):

   -69.2043 -39.0901 -35.3068 -35.3024 -35.2675 -15.5010 -15.4902 -15.2272
    13.5656  14.3325  15.6507  15.8817  16.4032  16.7209  18.4860  18.9868
    19.1887  20.5637

          k = 0.0909 0.3636 0.4545 (  4002 PWs)   bands (ev):

   -69.2038 -39.0835 -35.3116 -35.3057 -35.2669 -15.5444 -15.4872 -15.2223
    13.6402  14.1966  15.5970  15.6797  16.7391  17.3611  18.2404  18.9495
    19.2816  20.7958

          k = 0.0909 0.4545 0.4545 (  3993 PWs)   bands (ev):

   -69.2033 -39.0764 -35.3134 -35.3128 -35.2662 -15.5359 -15.5344 -15.2171
    13.5314  14.1009  15.4861  15.5157  17.4523  17.8446  18.4160  18.5135
    19.4900  21.0194

          k = 0.1818 0.1818 0.1818 (  3989 PWs)   bands (ev):

   -69.2072 -39.1238 -35.2825 -35.2825 -35.2757 -15.3446 -15.3274 -15.3274
    12.0266  14.7610  14.7610  16.1713  16.1713  16.6504  18.9329  18.9329
    19.2930  20.0375

          k = 0.1818 0.1818 0.2727 (  3992 PWs)   bands (ev):

   -69.2063 -39.1137 -35.2922 -35.2810 -35.2777 -15.4290 -15.3257 -15.3208
    12.6697  14.9702  15.0333  16.0341  16.0388  16.3368  18.8050  19.0078
    19.4274  19.5989

          k = 0.1818 0.1818 0.3636 (  3994 PWs)   bands (ev):

   -69.2054 -39.1044 -35.3017 -35.2796 -35.2790 -15.5149 -15.3149 -15.3148
    13.3929  15.0074  15.2036  15.8991  16.0682  16.2650  18.6704  18.7433
    18.9524  20.1601

          k = 0.1818 0.1818 0.4545 (  3986 PWs)   bands (ev):

   -69.2049 -39.0989 -35.3073 -35.2797 -35.2788 -15.5656 -15.3112 -15.3084
    14.0172  14.6821  15.3921  15.7788  16.1845  16.4450  18.3322  18.5953
    18.6807  20.5299

          k = 0.1818 0.2727 0.2727 (  3994 PWs)   bands (ev):

   -69.2053 -39.1027 -35.2945 -35.2893 -35.2787 -15.4236 -15.4100 -15.3143
    13.2274  14.9964  15.4273  15.8397  15.9189  15.9976  18.8252  19.0096
    19.3285  20.0778

          k = 0.1818 0.2727 0.3636 (  3988 PWs)   bands (ev):

   -69.2045 -39.0926 -35.3031 -35.2918 -35.2783 -15.5016 -15.4059 -15.3060
    13.7701  14.8707  15.5750  15.7253  15.9737  16.0870  18.5906  18.8383
    19.2207  20.3803

          k = 0.1818 0.2727 0.4545 (  3991 PWs)   bands (ev):

   -69.2039 -39.0866 -35.3091 -35.2925 -35.2779 -15.5511 -15.3998 -15.3010
    14.1253  14.6660  15.5488  15.6706  16.0602  16.5356  18.2319  18.6757
    19.1298  20.6015

          k = 0.1818 0.3636 0.3636 (  3990 PWs)   bands (ev):

   -69.2036 -39.0817 -35.3055 -35.3023 -35.2773 -15.4928 -15.4851 -15.2978
    13.9820  14.6576  15.5747  15.6896  16.2719  16.2956  18.4622  18.6970
    19.4851  20.5436

          k = 0.1818 0.3636 0.4545 (  3993 PWs)   bands (ev):

   -69.2031 -39.0753 -35.3108 -35.3045 -35.2767 -15.5378 -15.4816 -15.2929
    14.0272  14.5323  15.5200  15.5675  16.4915  16.9250  18.1794  18.5402
    19.5617  20.7854

          k = 0.1818 0.4545 0.4545 (  4002 PWs)   bands (ev):

   -69.2026 -39.0685 -35.3120 -35.3116 -35.2760 -15.5303 -15.5293 -15.2880
    13.9234  14.4435  15.4329  15.4545  17.1746  17.2812  18.0690  18.2503
    19.7506  21.0766

          k = 0.2727 0.2727 0.2727 (  3998 PWs)   bands (ev):

   -69.2044 -39.0915 -35.2928 -35.2928 -35.2886 -15.4132 -15.4033 -15.4033
    13.7990  15.4441  15.4441  15.5182  15.7193  15.7193  18.8337  18.8337
    19.7984  19.7984

          k = 0.2727 0.2727 0.3636 (  3992 PWs)   bands (ev):

   -69.2035 -39.0812 -35.3030 -35.2913 -35.2908 -15.4904 -15.3973 -15.3971
    14.2965  15.1356  15.4426  15.6207  15.7209  15.9354  18.5785  18.6239
    19.6455  20.2948

          k = 0.2727 0.2727 0.4545 (  3990 PWs)   bands (ev):

   -69.2030 -39.0751 -35.3095 -35.2915 -35.2905 -15.5396 -15.3934 -15.3900
    14.5098  14.9115  15.4302  15.5701  15.9004  16.3710  18.1751  18.4970
    19.5915  20.6353

          k = 0.2727 0.3636 0.3636 (  3988 PWs)   bands (ev):

   -69.2027 -39.0707 -35.3037 -35.3021 -35.2902 -15.4821 -15.4783 -15.3891
    14.5958  15.0027  15.4918  15.5872  15.8170  16.0595  18.4143  18.4173
    19.9497  20.4947

          k = 0.2727 0.3636 0.4545 (  3992 PWs)   bands (ev):

   -69.2021 -39.0645 -35.3099 -35.3030 -35.2896 -15.5291 -15.4742 -15.3843
    14.5794  14.9171  15.4521  15.5076  16.1032  16.4659  18.0772  18.3313
    20.0121  20.8207

          k = 0.2727 0.4545 0.4545 (  4000 PWs)   bands (ev):

   -69.2016 -39.0581 -35.3102 -35.3100 -35.2888 -15.5231 -15.5225 -15.3799
    14.5067  14.8769  15.3854  15.4135  16.6254  16.6526  17.9060  18.1706
    20.1898  21.1137

          k = 0.3636 0.3636 0.3636 (  3999 PWs)   bands (ev):

   -69.2018 -39.0606 -35.3021 -35.3021 -35.3018 -15.4723 -15.4721 -15.4721
    14.9948  15.3300  15.4470  15.4470  15.8146  15.8146  18.2411  18.2411
    20.5003  20.5003

          k = 0.3636 0.3636 0.4545 (  4008 PWs)   bands (ev):

   -69.2013 -39.0545 -35.3090 -35.3018 -35.3012 -15.5211 -15.4684 -15.4664
    14.9932  15.1653  15.4767  15.6074  15.7984  16.1605  17.9824  18.1639
    20.5130  20.9127

          k = 0.3636 0.4545 0.4545 (  3994 PWs)   bands (ev):

   -69.2008 -39.0486 -35.3085 -35.3085 -35.3006 -15.5164 -15.5163 -15.4633
    15.1009  15.2496  15.3888  15.4963  16.0924  16.1437  17.8651  18.0301
    20.7354  21.1431

          k = 0.4545 0.4545 0.4545 (  3972 PWs)   bands (ev):

   -69.2003 -39.0430 -35.3076 -35.3075 -35.3075 -15.5126 -15.5126 -15.5122
    15.3317  15.4752  15.4752  15.7776  15.7776  15.8004  17.8552  17.8552
    21.1598  21.1598

     the Fermi energy is    17.5936 ev

!    total energy              =    -448.58655249 Ry
     estimated scf accuracy    <          4.6E-09 Ry
     smearing contrib. (-TS)   =       0.00005040 Ry
     internal energy E=F+TS    =    -448.58660289 Ry

     The total energy is F=E-TS. E is the sum of the following terms:
     one-electron contribution =    -151.34258883 Ry
     hartree contribution      =      91.61754588 Ry
     xc contribution           =     -52.88701341 Ry
     ewald contribution        =    -259.82070277 Ry
     one-center paw contrib.   =     -76.15384375 Ry

     convergence has been achieved in  36 iterations

     negative rho (up, down):  9.642E-04 0.000E+00

     Forces acting on atoms (cartesian axes, Ry/au):

     atom    1 type  1   force =     0.00000000    0.00000000    0.00000000
     atom    2 type  2   force =     0.00000000    0.00000000    0.00000000

     Total force =     0.000000     Total SCF correction =     0.000000


     Computing stress (Cartesian axis) and pressure


     negative rho (up, down):  9.642E-04 0.000E+00
          total   stress  (Ry/bohr**3)                   (kbar)     P=       31.33
   0.00021296   0.00000000   0.00000000           31.33        0.00        0.00
   0.00000000   0.00021296   0.00000000            0.00       31.33        0.00
   0.00000000   0.00000000   0.00021296            0.00        0.00       31.33


     BFGS Geometry Optimization
     Energy error            =      3.7E-02 Ry
     Gradient error          =      0.0E+00 Ry/Bohr
     Cell gradient error     =      2.4E+02 kbar

     number of scf cycles    =   1
     number of bfgs steps    =   0

     enthalpy           new  =    -448.2710079524 Ry

     new trust radius        =       0.1066253281 bohr
     new conv_thr            =       0.0000000100 Ry

     new unit-cell volume =    151.16969 a.u.^3 (    22.40104 Ang^3 )
     density =      7.68794 g/cm^3

CELL_PARAMETERS (alat=  5.55330037)
   0.959261631   0.000000000   0.000000000
   0.000000000   0.959261631   0.000000000
   0.000000000   0.000000000   0.959261631

ATOMIC_POSITIONS (crystal)
Fe               0.5000000000        0.5000000000        0.5000000000
Ti               0.0000000000        0.0000000000        0.0000000000



     Writing config-only to output data dir ./TiFe.save/ :
     XML data file
     NEW-OLD atomic charge density approx. for the potential
     New effective cutoffs (rho, wfc): 1886.44  134.75

     Check: negative core charge=   -0.000001

     negative rho (up, down):  8.770E-04 0.000E+00

     total cpu time spent up to now is       38.6 secs

     per-process dynamical memory:   153.2 Mb

     Self-consistent Calculation

     iteration #  1     ecut=   124.00 Ry     beta= 0.70
     Davidson diagonalization with overlap
     ethr =  1.00E-06,  avg # of iterations =  9.8

     negative rho (up, down):  9.113E-04 0.000E+00

     total cpu time spent up to now is       40.7 secs

     total energy              =    -448.56054141 Ry
     estimated scf accuracy    <       0.00145061 Ry

     iteration #  2     ecut=   124.00 Ry     beta= 0.70
     Davidson diagonalization with overlap
     ethr =  5.18E-06,  avg # of iterations =  4.1

     negative rho (up, down):  9.274E-04 0.000E+00

     total cpu time spent up to now is       41.9 secs

     total energy              =    -448.55608523 Ry
     estimated scf accuracy    <       0.06824505 Ry

     iteration #  3     ecut=   124.00 Ry     beta= 0.70
     Davidson diagonalization with overlap
     ethr =  5.18E-06,  avg # of iterations =  4.2

     negative rho (up, down):  9.237E-04 0.000E+00

     total cpu time spent up to now is       43.0 secs

     total energy              =    -448.56171527 Ry
     estimated scf accuracy    <       0.00189288 Ry

     iteration #  4     ecut=   124.00 Ry     beta= 0.70
     Davidson diagonalization with overlap
     ethr =  5.18E-06,  avg # of iterations =  1.1

     negative rho (up, down):  9.308E-04 0.000E+00

     total cpu time spent up to now is       43.9 secs

     total energy              =    -448.56182695 Ry
     estimated scf accuracy    <       0.00023797 Ry

     iteration #  5     ecut=   124.00 Ry     beta= 0.70
     Davidson diagonalization with overlap
     ethr =  8.50E-07,  avg # of iterations =  3.3

     negative rho (up, down):  9.308E-04 0.000E+00

     total cpu time spent up to now is       44.8 secs

     total energy              =    -448.56185438 Ry
     estimated scf accuracy    <       0.00000752 Ry

     iteration #  6     ecut=   124.00 Ry     beta= 0.70
     Davidson diagonalization with overlap
     ethr =  2.69E-08,  avg # of iterations =  4.7

     negative rho (up, down):  9.308E-04 0.000E+00

     total cpu time spent up to now is       45.9 secs

     total energy              =    -448.56185692 Ry
     estimated scf accuracy    <       0.00000100 Ry

     iteration #  7     ecut=   124.00 Ry     beta= 0.70
     Davidson diagonalization with overlap
     ethr =  3.57E-09,  avg # of iterations =  3.6

     negative rho (up, down):  9.315E-04 0.000E+00

     total cpu time spent up to now is       47.0 secs

     total energy              =    -448.56185665 Ry
     estimated scf accuracy    <       0.00000142 Ry

     iteration #  8     ecut=   124.00 Ry     beta= 0.70
     Davidson diagonalization with overlap
     ethr =  3.57E-09,  avg # of iterations =  3.3

     negative rho (up, down):  9.314E-04 0.000E+00

     total cpu time spent up to now is       48.0 secs

     total energy              =    -448.56185689 Ry
     estimated scf accuracy    <       0.00000027 Ry

     iteration #  9     ecut=   124.00 Ry     beta= 0.70
     Davidson diagonalization with overlap
     ethr =  9.81E-10,  avg # of iterations =  1.1

     negative rho (up, down):  9.313E-04 0.000E+00

     total cpu time spent up to now is       48.9 secs

     total energy              =    -448.56185688 Ry
     estimated scf accuracy    <       0.00000012 Ry

     iteration # 10     ecut=   124.00 Ry     beta= 0.70
     Davidson diagonalization with overlap
     ethr =  4.19E-10,  avg # of iterations =  1.5

     negative rho (up, down):  9.313E-04 0.000E+00

     total cpu time spent up to now is       49.8 secs

     total energy              =    -448.56185687 Ry
     estimated scf accuracy    <       0.00000004 Ry

     iteration # 11     ecut=   124.00 Ry     beta= 0.70
     Davidson diagonalization with overlap
     ethr =  1.34E-10,  avg # of iterations =  3.2

     negative rho (up, down):  9.313E-04 0.000E+00

     total cpu time spent up to now is       50.8 secs

     total energy              =    -448.56185687 Ry
     estimated scf accuracy    <       0.00000003 Ry

     iteration # 12     ecut=   124.00 Ry     beta= 0.70
     Davidson diagonalization with overlap
     ethr =  9.39E-11,  avg # of iterations =  2.2

     negative rho (up, down):  9.314E-04 0.000E+00

     total cpu time spent up to now is       51.7 secs

     End of self-consistent calculation

          k = 0.0000 0.0000 0.0000 (  3911 PWs)   bands (ev):

   -66.5951 -36.1961 -32.6628 -32.6628 -32.6628 -12.2411 -12.2411 -12.2411
    12.5001  15.8439  15.8439  19.1890  19.1890  19.1890  21.9079  21.9079
    24.2071  24.2071

          k = 0.0000 0.0000 0.0948 (  3947 PWs)   bands (ev):

   -66.5946 -36.1934 -32.6659 -32.6621 -32.6621 -12.2865 -12.2387 -12.2387
    12.6947  15.9393  15.9621  19.1749  19.1749  19.2337  21.7766  21.9590
    23.9052  23.9052

          k = 0.0000 0.0000 0.1895 (  3964 PWs)   bands (ev):

   -66.5932 -36.1862 -32.6742 -32.6603 -32.6603 -12.4072 -12.2324 -12.2324
    13.2552  16.2193  16.2758  19.1438  19.1438  19.3591  21.3989  22.0818
    23.2073  23.2073

          k = 0.0000 0.0000 0.2843 (  3988 PWs)   bands (ev):

   -66.5913 -36.1768 -32.6849 -32.6578 -32.6578 -12.5626 -12.2242 -12.2242
    14.1114  16.6619  16.6620  19.1210  19.1210  19.5378  20.8248  22.1633
    22.4374  22.4374

          k = 0.0000 0.0000 0.3791 (  4008 PWs)   bands (ev):

   -66.5896 -36.1682 -32.6945 -32.6556 -32.6556 -12.7027 -12.2165 -12.2165
    15.1393  16.9195  17.2148  19.1249  19.1249  19.7208  20.1480  21.8053
    21.8053  22.0124

          k = 0.0000 0.0000 0.4738 (  3992 PWs)   bands (ev):

   -66.5886 -36.1632 -32.7001 -32.6543 -32.6543 -12.7849 -12.2120 -12.2120
    16.1218  16.8032  17.7185  19.1439  19.1439  19.5694  19.8408  21.4450
    21.4450  21.6955

          k = 0.0000 0.0948 0.0948 (  3966 PWs)   bands (ev):

   -66.5941 -36.1904 -32.6686 -32.6625 -32.6614 -12.2895 -12.2778 -12.2362
    12.8846  16.0384  16.0723  19.0733  19.1518  19.3527  21.7588  21.9230
    23.5717  23.6063

          k = 0.0000 0.0948 0.1895 (  3978 PWs)   bands (ev):

   -66.5927 -36.1822 -32.6767 -32.6622 -32.6596 -12.4037 -12.2752 -12.2295
    13.4296  16.2995  16.3896  18.9772  19.0966  19.4966  21.4682  22.0305
    22.9307  22.9598

          k = 0.0000 0.0948 0.2843 (  3995 PWs)   bands (ev):

   -66.5908 -36.1716 -32.6874 -32.6616 -32.6572 -12.5569 -12.2654 -12.2206
    14.2568  16.6795  16.8059  18.9291  19.0373  19.5999  20.9788  22.0273
    22.3437  22.3637

          k = 0.0000 0.0948 0.3791 (  3991 PWs)   bands (ev):

   -66.5891 -36.1619 -32.6971 -32.6610 -32.6550 -12.6952 -12.2563 -12.2125
    15.2386  16.9567  17.2804  18.9450  18.9825  19.6026  20.4281  21.5342
    21.9693  22.2359

          k = 0.0000 0.0948 0.4738 (  3999 PWs)   bands (ev):

   -66.5881 -36.1562 -32.7027 -32.6606 -32.6537 -12.7764 -12.2509 -12.2077
    16.1623  16.8352  17.7262  18.8963  19.0018  19.5254  20.0460  21.2034
    21.8151  22.0459

          k = 0.0000 0.1895 0.1895 (  3972 PWs)   bands (ev):

   -66.5913 -36.1716 -32.6840 -32.6665 -32.6579 -12.4079 -12.3750 -12.2216
    13.9236  16.4838  16.7334  18.7654  18.9930  19.5966  21.5367  21.9776
    22.3265  22.5671

          k = 0.0000 0.1895 0.2843 (  4003 PWs)   bands (ev):

   -66.5894 -36.1576 -32.6944 -32.6712 -32.6556 -12.5421 -12.3744 -12.2112
    14.6501  16.7131  17.2035  18.6210  18.9039  19.5068  21.3158  21.7085
    22.1741  22.3559

          k = 0.0000 0.1895 0.3791 (  3997 PWs)   bands (ev):

   -66.5878 -36.1449 -32.7041 -32.6752 -32.6535 -12.6751 -12.3618 -12.2016
    15.4622  16.8548  17.6650  18.5826  18.8946  19.2482  20.9493  21.3222
    22.3679  22.3889

          k = 0.0000 0.1895 0.4738 (  3990 PWs)   bands (ev):

   -66.5868 -36.1373 -32.7099 -32.6776 -32.6522 -12.7534 -12.3541 -12.1960
    16.1498  16.7532  17.9746  18.6542  18.9657  18.9740  20.7512  21.0465
    22.4448  22.5135

          k = 0.0000 0.2843 0.2843 (  4000 PWs)   bands (ev):

   -66.5876 -36.1393 -32.7042 -32.6832 -32.6534 -12.5379 -12.4996 -12.1988
    15.1665  16.7144  17.7580  18.3703  18.8948  19.1832  21.4512  21.5905
    22.0729  22.5685

          k = 0.0000 0.2843 0.3791 (  3993 PWs)   bands (ev):

   -66.5860 -36.1224 -32.7137 -32.6937 -32.6514 -12.6489 -12.4977 -12.1874
    15.6363  16.6407  18.2411  18.3012  18.7891  19.1403  21.2508  21.5728
    22.3032  22.9057

          k = 0.0000 0.2843 0.4738 (  3996 PWs)   bands (ev):

   -66.5850 -36.1124 -32.7194 -32.6998 -32.6502 -12.7232 -12.4873 -12.1806
    15.9342  16.5220  18.2620  18.4676  18.6037  19.5957  20.9841  21.5066
    22.6143  23.2082

          k = 0.0000 0.3791 0.3791 (  4002 PWs)   bands (ev):

   -66.5843 -36.1016 -32.7228 -32.7104 -32.6496 -12.6337 -12.6116 -12.1742
    15.6758  16.4284  18.0179  18.3711  19.0255  19.6697  21.4403  21.9960
    22.1321  23.3939

          k = 0.0000 0.3791 0.4738 (  3999 PWs)   bands (ev):

   -66.5833 -36.0892 -32.7284 -32.7201 -32.6484 -12.6954 -12.6076 -12.1664
    15.6559  16.3005  17.9583  18.0811  19.4748  20.4143  21.1834  22.0823
    22.4256  23.7607

          k = 0.0000 0.4738 0.4738 (  3998 PWs)   bands (ev):

   -66.5824 -36.0754 -32.7339 -32.7321 -32.6474 -12.6801 -12.6771 -12.1579
    15.4815  16.1729  17.8138  17.8553  20.2523  20.8598  21.7209  21.9390
    22.3965  24.0881

          k = 0.0948 0.0948 0.0948 (  3959 PWs)   bands (ev):

   -66.5935 -36.1870 -32.6678 -32.6678 -32.6595 -12.2912 -12.2754 -12.2754
    13.0705  16.1581  16.1581  19.0474  19.0474  19.4507  21.8245  21.8245
    23.0737  23.8814

          k = 0.0948 0.0948 0.1895 (  3966 PWs)   bands (ev):

   -66.5921 -36.1780 -32.6775 -32.6659 -32.6590 -12.4000 -12.2751 -12.2690
    13.6027  16.4084  16.4735  18.9152  18.9794  19.5554  21.5412  21.9830
    22.5090  23.1822

          k = 0.0948 0.0948 0.2843 (  3992 PWs)   bands (ev):

   -66.5903 -36.1663 -32.6891 -32.6634 -32.6594 -12.5513 -12.2631 -12.2606
    14.4056  16.7979  16.8505  18.8519  18.8879  19.5502  21.1161  21.9486
    22.2952  22.4272

          k = 0.0948 0.0948 0.3791 (  3994 PWs)   bands (ev):

   -66.5886 -36.1557 -32.6992 -32.6611 -32.6599 -12.6881 -12.2528 -12.2518
    15.3483  17.0675  17.2712  18.7735  18.9013  19.4385  20.6476  21.6483
    21.8254  22.4466

          k = 0.0948 0.0948 0.4738 (  4007 PWs)   bands (ev):

   -66.5876 -36.1494 -32.7050 -32.6603 -32.6597 -12.7683 -12.2482 -12.2451
    16.2243  16.9046  17.6869  18.6269  19.0568  19.3233  20.3187  21.3527
    21.4934  22.5932

          k = 0.0948 0.1895 0.1895 (  3984 PWs)   bands (ev):

   -66.5907 -36.1669 -32.6832 -32.6704 -32.6595 -12.4026 -12.3725 -12.2633
    14.0921  16.6137  16.7907  18.7229  18.8556  19.5182  21.6236  21.9421
    22.1812  22.8429

          k = 0.0948 0.1895 0.2843 (  3994 PWs)   bands (ev):

   -66.5889 -36.1523 -32.6944 -32.6727 -32.6598 -12.5367 -12.3708 -12.2521
    14.8084  16.8552  17.2272  18.5723  18.7550  19.2967  21.4299  21.8578
    22.2076  22.4386

          k = 0.0948 0.1895 0.3791 (  4001 PWs)   bands (ev):

   -66.5873 -36.1389 -32.7051 -32.6752 -32.6592 -12.6688 -12.3581 -12.2417
    15.6005  17.0082  17.6050  18.4949  18.7686  19.0698  21.1309  21.4681
    22.0640  22.7855

          k = 0.0948 0.1895 0.4738 (  3993 PWs)   bands (ev):

   -66.5863 -36.1309 -32.7114 -32.6770 -32.6585 -12.7466 -12.3504 -12.2353
    16.2649  16.8847  17.8375  18.4400  18.8679  19.0515  20.9282  21.1404
    21.8365  23.2739

          k = 0.0948 0.2843 0.2843 (  3989 PWs)   bands (ev):

   -66.5871 -36.1338 -32.7033 -32.6845 -32.6588 -12.5316 -12.4972 -12.2394
    15.3348  16.8628  17.7674  18.3289  18.7238  18.9339  21.5926  21.7696
    22.0545  22.7460

          k = 0.0948 0.2843 0.3791 (  3985 PWs)   bands (ev):

   -66.5855 -36.1167 -32.7134 -32.6940 -32.6574 -12.6439 -12.4943 -12.2276
    15.8006  16.7898  18.1653  18.2483  18.6677  18.9642  21.3504  21.6771
    22.1513  23.2515

          k = 0.0948 0.2843 0.4738 (  4006 PWs)   bands (ev):

   -66.5845 -36.1065 -32.7199 -32.6992 -32.6564 -12.7181 -12.4841 -12.2206
    16.0804  16.6690  18.1636  18.2514  18.6776  19.4699  21.0332  21.6283
    22.0903  23.8226

          k = 0.0948 0.3791 0.3791 (  3992 PWs)   bands (ev):

   -66.5838 -36.0962 -32.7219 -32.7105 -32.6556 -12.6291 -12.6092 -12.2147
    15.8396  16.5774  17.9848  18.2689  18.9797  19.4623  21.3746  21.9888
    22.1113  23.7850

          k = 0.0948 0.3791 0.4738 (  4002 PWs)   bands (ev):

   -66.5829 -36.0839 -32.7279 -32.7194 -32.6545 -12.6919 -12.6050 -12.2069
    15.8095  16.4518  17.9241  18.0250  19.3984  20.2099  21.1128  21.9612
    22.2272  24.0359

          k = 0.0948 0.4738 0.4738 (  3993 PWs)   bands (ev):

   -66.5819 -36.0704 -32.7329 -32.7313 -32.6534 -12.6775 -12.6748 -12.1988
    15.6370  16.3257  17.7916  17.8282  20.1978  20.7374  21.3565  21.5105
    22.4821  24.2940

          k = 0.1895 0.1895 0.1895 (  3989 PWs)   bands (ev):

   -66.5894 -36.1543 -32.6811 -32.6811 -32.6635 -12.3967 -12.3659 -12.3659
    14.5649  16.9534  16.9534  18.6105  18.6105  19.2102  21.8371  21.8371
    22.2624  23.1344

          k = 0.1895 0.1895 0.2843 (  3992 PWs)   bands (ev):

   -66.5876 -36.1378 -32.6953 -32.6784 -32.6686 -12.5225 -12.3644 -12.3573
    15.2402  17.1923  17.3299  18.4552  18.4629  18.8308  21.6767  21.9654
    22.4090  22.6373

          k = 0.1895 0.1895 0.3791 (  3994 PWs)   bands (ev):

   -66.5859 -36.1226 -32.7081 -32.6759 -32.6733 -12.6521 -12.3493 -12.3467
    15.9449  17.3915  17.4556  18.3131  18.5237  18.7433  21.5047  21.6983
    21.8463  23.3168

          k = 0.1895 0.1895 0.4738 (  3986 PWs)   bands (ev):

   -66.5849 -36.1136 -32.7156 -32.6762 -32.6744 -12.7285 -12.3445 -12.3359
    16.4897  17.1094  17.6582  18.1941  18.6811  19.0094  21.2385  21.3965
    21.5349  23.7178

          k = 0.1895 0.2843 0.2843 (  3994 PWs)   bands (ev):

   -66.5858 -36.1188 -32.7011 -32.6886 -32.6727 -12.5147 -12.4906 -12.3473
    15.8024  17.2656  17.7854  18.2257  18.3379  18.4370  21.7404  21.9704
    22.2699  23.2210

          k = 0.1895 0.2843 0.3791 (  3988 PWs)   bands (ev):

   -66.5841 -36.1013 -32.7129 -32.6945 -32.6733 -12.6305 -12.4850 -12.3346
    16.2554  17.1767  17.9281  18.1111  18.4574  18.5839  21.4839  21.7798
    22.1396  23.5276

          k = 0.1895 0.2843 0.4738 (  3991 PWs)   bands (ev):

   -66.5832 -36.0908 -32.7213 -32.6973 -32.6730 -12.7047 -12.4756 -12.3268
    16.4715  17.0214  17.8669  18.0669  18.5953  19.1748  21.0988  21.5752
    22.0252  23.8000

          k = 0.1895 0.3791 0.3791 (  3990 PWs)   bands (ev):

   -66.5825 -36.0815 -32.7194 -32.7110 -32.6719 -12.6166 -12.6029 -12.3221
    16.3056  16.9629  17.9040  18.0557  18.8340  18.9399  21.3310  21.6413
    22.4569  23.7180

          k = 0.1895 0.3791 0.4738 (  3993 PWs)   bands (ev):

   -66.5815 -36.0697 -32.7267 -32.7174 -32.6709 -12.6828 -12.5978 -12.3146
    16.2436  16.8426  17.8426  17.9122  19.1357  19.6743  21.0329  21.4422
    22.5504  24.0112

          k = 0.1895 0.4738 0.4738 (  4002 PWs)   bands (ev):

   -66.5806 -36.0571 -32.7303 -32.7291 -32.6697 -12.6706 -12.6687 -12.3074
    16.0817  16.7309  17.7417  17.7705  19.9182  20.1035  20.9214  21.1030
    22.7846  24.3534

          k = 0.2843 0.2843 0.2843 (  3998 PWs)   bands (ev):

   -66.5840 -36.0991 -32.6981 -32.6981 -32.6867 -12.4971 -12.4819 -12.4819
    16.4241  17.7866  17.7866  17.8709  18.1118  18.1118  21.7666  21.7666
    22.8241  22.8241

          k = 0.2843 0.2843 0.3791 (  3992 PWs)   bands (ev):

   -66.5824 -36.0810 -32.7133 -32.6953 -32.6930 -12.6132 -12.4740 -12.4712
    16.8253  17.4702  17.7572  18.0328  18.1546  18.4069  21.4903  21.5128
    22.6384  23.4197

          k = 0.2843 0.2843 0.4738 (  3990 PWs)   bands (ev):

   -66.5814 -36.0701 -32.7233 -32.6959 -32.6936 -12.6870 -12.4692 -12.4591
    16.8622  17.2670  17.7256  17.9959  18.4398  18.9641  21.0334  21.3576
    22.5730  23.8356

          k = 0.2843 0.3791 0.3791 (  3988 PWs)   bands (ev):

   -66.5808 -36.0622 -32.7161 -32.7116 -32.6931 -12.6004 -12.5946 -12.4608
    16.9702  17.3619  17.8212  17.9848  18.3450  18.5886  21.2755  21.2974
    23.0050  23.6550

          k = 0.2843 0.3791 0.4738 (  3992 PWs)   bands (ev):

   -66.5798 -36.0510 -32.7254 -32.7147 -32.6923 -12.6707 -12.5883 -12.4536
    16.8502  17.2681  17.7754  17.8958  18.7017  19.0989  20.9063  21.1776
    23.0808  24.0496

          k = 0.2843 0.4738 0.4738 (  4000 PWs)   bands (ev):

   -66.5788 -36.0395 -32.7269 -32.7262 -32.6909 -12.6615 -12.6607 -12.4474
    16.7403  17.2342  17.7072  17.7528  19.3106  19.3183  20.6942  21.0019
    23.2995  24.3972

          k = 0.3791 0.3791 0.3791 (  3999 PWs)   bands (ev):

   -66.5792 -36.0443 -32.7131 -32.7131 -32.7118 -12.5869 -12.5869 -12.5846
    17.2691  17.7889  17.7889  17.9461  18.2933  18.2933  21.0791  21.0791
    23.6610  23.6610

          k = 0.3791 0.3791 0.4738 (  4008 PWs)   bands (ev):

   -66.5782 -36.0337 -32.7242 -32.7127 -32.7113 -12.6597 -12.5823 -12.5764
    17.2738  17.5216  17.8456  18.0336  18.3739  18.7151  20.7836  20.9838
    23.6763  24.1582

          k = 0.3791 0.4738 0.4738 (  3994 PWs)   bands (ev):

   -66.5773 -36.0233 -32.7237 -32.7236 -32.7103 -12.6533 -12.6531 -12.5741
    17.4029  17.6390  17.7417  17.9131  18.6576  18.6974  20.6397  20.8327
    23.9454  24.4331

          k = 0.4738 0.4738 0.4738 (  3972 PWs)   bands (ev):

   -66.5763 -36.0137 -32.7221 -32.7218 -32.7218 -12.6489 -12.6489 -12.6477
    17.6969  17.8924  17.8924  18.2201  18.2201  18.3006  20.6271  20.6271
    24.4537  24.4537

     the Fermi energy is    20.3571 ev

!    total energy              =    -448.56185687 Ry
     estimated scf accuracy    <          5.6E-09 Ry
     smearing contrib. (-TS)   =       0.00002239 Ry
     internal energy E=F+TS    =    -448.56187925 Ry

     The total energy is F=E-TS. E is the sum of the following terms:
     one-electron contribution =    -134.46496602 Ry
     hartree contribution      =      86.04357933 Ry
     xc contribution           =     -53.12924962 Ry
     ewald contribution        =    -270.85488921 Ry
     one-center paw contrib.   =     -76.15635372 Ry

     convergence has been achieved in  12 iterations

     negative rho (up, down):  9.314E-04 0.000E+00

     Forces acting on atoms (cartesian axes, Ry/au):

     atom    1 type  1   force =     0.00000000    0.00000000    0.00000000
     atom    2 type  2   force =     0.00000000    0.00000000    0.00000000

     Total force =     0.000000     Total SCF correction =     0.000000


     Computing stress (Cartesian axis) and pressure


     negative rho (up, down):  9.314E-04 0.000E+00
          total   stress  (Ry/bohr**3)                   (kbar)     P=      361.63
   0.00245833   0.00000000   0.00000000          361.63        0.00        0.00
   0.00000000   0.00245833   0.00000000            0.00      361.63        0.00
   0.00000000   0.00000000   0.00245833            0.00        0.00      361.63

     Energy error            =      1.2E-02 Ry
     Gradient error          =      0.0E+00 Ry/Bohr
     Cell gradient error     =      9.1E+01 kbar

     number of scf cycles    =   2
     number of bfgs steps    =   1

     enthalpy           old  =    -448.2710079524 Ry
     enthalpy           new  =    -448.2833269252 Ry

     CASE: enthalpy          _new < enthalpy          _old

     new trust radius        =       0.0269456808 bohr
     new conv_thr            =            1.0E-10 Ry

     new unit-cell volume =    156.19384 a.u.^3 (    23.14554 Ang^3 )
     density =      7.44065 g/cm^3

CELL_PARAMETERS (alat=  5.55330037)
   0.969773111   0.000000000   0.000000000
   0.000000000   0.969773111   0.000000000
   0.000000000   0.000000000   0.969773111

ATOMIC_POSITIONS (crystal)
Fe               0.5000000000        0.5000000000        0.5000000000
Ti               0.0000000000        0.0000000000        0.0000000000



     Writing config-only to output data dir ./TiFe.save/ :
     XML data file
     NEW-OLD atomic charge density approx. for the potential
     New effective cutoffs (rho, wfc): 1845.77  131.84

     Check: negative core charge=   -0.000002

     negative rho (up, down):  9.510E-04 0.000E+00

     total cpu time spent up to now is       53.7 secs

     per-process dynamical memory:   153.2 Mb

     Self-consistent Calculation

     iteration #  1     ecut=   124.00 Ry     beta= 0.70
     Davidson diagonalization with overlap
     ethr =  1.00E-06,  avg # of iterations =  7.4

     negative rho (up, down):  9.431E-04 0.000E+00

     total cpu time spent up to now is       55.4 secs

     total energy              =    -448.57137989 Ry
     estimated scf accuracy    <       0.00056480 Ry

     iteration #  2     ecut=   124.00 Ry     beta= 0.70
     Davidson diagonalization with overlap
     ethr =  2.02E-06,  avg # of iterations =  4.9

     negative rho (up, down):  9.315E-04 0.000E+00

     total cpu time spent up to now is       56.6 secs

     total energy              =    -448.56952565 Ry
     estimated scf accuracy    <       0.04955632 Ry

     iteration #  3     ecut=   124.00 Ry     beta= 0.70
     Davidson diagonalization with overlap
     ethr =  2.02E-06,  avg # of iterations =  4.7

     negative rho (up, down):  9.371E-04 0.000E+00

     total cpu time spent up to now is       57.8 secs

     total energy              =    -448.57240459 Ry
     estimated scf accuracy    <       0.00009661 Ry

     iteration #  4     ecut=   124.00 Ry     beta= 0.70
     Davidson diagonalization with overlap
     ethr =  3.45E-07,  avg # of iterations =  2.1

     negative rho (up, down):  9.384E-04 0.000E+00

     total cpu time spent up to now is       58.8 secs

     total energy              =    -448.57242890 Ry
     estimated scf accuracy    <       0.00000716 Ry

     iteration #  5     ecut=   124.00 Ry     beta= 0.70
     Davidson diagonalization with overlap
     ethr =  2.56E-08,  avg # of iterations =  4.5

     negative rho (up, down):  9.370E-04 0.000E+00

     total cpu time spent up to now is       60.0 secs

     total energy              =    -448.57243353 Ry
     estimated scf accuracy    <       0.00000047 Ry

     iteration #  6     ecut=   124.00 Ry     beta= 0.70
     Davidson diagonalization with overlap
     ethr =  1.68E-09,  avg # of iterations =  3.8

     negative rho (up, down):  9.374E-04 0.000E+00

     total cpu time spent up to now is       61.2 secs

     total energy              =    -448.57243371 Ry
     estimated scf accuracy    <       0.00000050 Ry

     iteration #  7     ecut=   124.00 Ry     beta= 0.70
     Davidson diagonalization with overlap
     ethr =  1.68E-09,  avg # of iterations =  2.0

     negative rho (up, down):  9.375E-04 0.000E+00

     total cpu time spent up to now is       62.1 secs

     total energy              =    -448.57243377 Ry
     estimated scf accuracy    <       0.00000002 Ry

     iteration #  8     ecut=   124.00 Ry     beta= 0.70
     Davidson diagonalization with overlap
     ethr =  7.82E-11,  avg # of iterations =  4.6

     negative rho (up, down):  9.375E-04 0.000E+00

     total cpu time spent up to now is       63.3 secs

     total energy              =    -448.57243379 Ry
     estimated scf accuracy    <          1.3E-09 Ry

     iteration #  9     ecut=   124.00 Ry     beta= 0.70
     Davidson diagonalization with overlap
     ethr =  4.64E-12,  avg # of iterations =  4.1

     negative rho (up, down):  9.375E-04 0.000E+00

     total cpu time spent up to now is       64.4 secs

     total energy              =    -448.57243379 Ry
     estimated scf accuracy    <          3.3E-10 Ry

     iteration # 10     ecut=   124.00 Ry     beta= 0.70
     Davidson diagonalization with overlap
     ethr =  1.19E-12,  avg # of iterations =  2.3

     negative rho (up, down):  9.375E-04 0.000E+00

     total cpu time spent up to now is       65.4 secs

     End of self-consistent calculation

          k = 0.0000 0.0000 0.0000 (  3911 PWs)   bands (ev):

   -67.3088 -36.9972 -33.3746 -33.3746 -33.3746 -13.0582 -13.0582 -13.0582
    11.8471  15.3070  15.3070  18.4988  18.4988  18.4988  21.1147  21.1147
    23.3147  23.3147

          k = 0.0000 0.0000 0.0937 (  3947 PWs)   bands (ev):

   -67.3084 -36.9946 -33.3777 -33.3740 -33.3740 -13.0987 -13.0560 -13.0560
    12.0357  15.3992  15.4171  18.4850  18.4850  18.5416  20.9908  21.1626
    23.0268  23.0268

          k = 0.0000 0.0000 0.1875 (  3964 PWs)   bands (ev):

   -67.3072 -36.9877 -33.3857 -33.3725 -33.3725 -13.2065 -13.0501 -13.0501
    12.5798  15.6692  15.7075  18.4542  18.4542  18.6616  20.6335  21.2758
    22.3603  22.3603

          k = 0.0000 0.0000 0.2812 (  3988 PWs)   bands (ev):

   -67.3056 -36.9786 -33.3961 -33.3704 -33.3704 -13.3455 -13.0424 -13.0424
    13.4149  16.0588  16.0956  18.4305  18.4305  18.8325  20.0895  21.3428
    21.6246  21.6246

          k = 0.0000 0.0000 0.3750 (  4008 PWs)   bands (ev):

   -67.3042 -36.9703 -33.4055 -33.3685 -33.3685 -13.4711 -13.0353 -13.0353
    14.4253  16.2746  16.6270  18.4315  18.4315  19.0072  19.4468  21.0212
    21.0212  21.1785

          k = 0.0000 0.0000 0.4687 (  3992 PWs)   bands (ev):

   -67.3033 -36.9654 -33.4110 -33.3673 -33.3673 -13.5448 -13.0311 -13.0311
    15.4066  16.1158  17.1091  18.4473  18.4473  18.8972  19.1215  20.6782
    20.6782  20.8603

          k = 0.0000 0.0937 0.0937 (  3966 PWs)   bands (ev):

   -67.3079 -36.9918 -33.3797 -33.3749 -33.3735 -13.1011 -13.0911 -13.0536
    12.2198  15.4927  15.5215  18.3889  18.4625  18.6540  20.9737  21.1285
    22.7095  22.7411

          k = 0.0000 0.0937 0.1875 (  3978 PWs)   bands (ev):

   -67.3068 -36.9841 -33.3873 -33.3748 -33.3719 -13.2033 -13.0884 -13.0474
    12.7499  15.7424  15.8179  18.2971  18.4084  18.7904  20.6988  21.2275
    22.0949  22.1257

          k = 0.0000 0.0937 0.2812 (  3995 PWs)   bands (ev):

   -67.3052 -36.9741 -33.3978 -33.3740 -33.3698 -13.3404 -13.0794 -13.0392
    13.5586  16.0954  16.2119  18.2502  18.3494  18.8884  20.2351  21.2164
    21.5309  21.5562

          k = 0.0000 0.0937 0.3750 (  3991 PWs)   bands (ev):

   -67.3038 -36.9649 -33.4074 -33.3733 -33.3679 -13.4645 -13.0710 -13.0317
    14.5269  16.3184  16.6806  18.2628  18.2953  18.8921  19.7110  20.7469
    21.1785  21.4074

          k = 0.0000 0.0937 0.4687 (  3999 PWs)   bands (ev):

   -67.3029 -36.9595 -33.4130 -33.3729 -33.3668 -13.5373 -13.0660 -13.0272
    15.4535  16.1531  17.1124  18.2143  18.3135  18.8217  19.3434  20.4267
    21.0297  21.2137

          k = 0.0000 0.1875 0.1875 (  3972 PWs)   bands (ev):

   -67.3056 -36.9745 -33.3932 -33.3795 -33.3704 -13.2064 -13.1784 -13.0402
    13.2335  15.9151  16.1439  18.0959  18.3065  18.8836  20.7627  21.1779
    21.5143  21.7523

          k = 0.0000 0.1875 0.2812 (  4003 PWs)   bands (ev):

   -67.3040 -36.9619 -33.4029 -33.3834 -33.3684 -13.3273 -13.1774 -13.0307
    13.9508  16.1270  16.5870  17.9579  18.2156  18.7977  20.5551  20.9151
    21.3633  21.5501

          k = 0.0000 0.1875 0.3750 (  3997 PWs)   bands (ev):

   -67.3026 -36.9504 -33.4126 -33.3862 -33.3666 -13.4469 -13.1660 -13.0220
    14.7650  16.2398  17.0261  17.9200  18.1991  18.5530  20.2064  20.5415
    21.5360  21.5791

          k = 0.0000 0.1875 0.4687 (  3990 PWs)   bands (ev):

   -67.3018 -36.9436 -33.4185 -33.3878 -33.3655 -13.5173 -13.1591 -13.0168
    15.4741  16.0998  17.3276  17.9855  18.2587  18.2949  20.0161  20.2736
    21.5947  21.6956

          k = 0.0000 0.2812 0.2812 (  4000 PWs)   bands (ev):

   -67.3025 -36.9460 -33.4109 -33.3944 -33.3665 -13.3233 -13.2906 -13.0196
    14.4778  16.1207  17.1126  17.7191  18.1931  18.4899  20.6677  20.8163
    21.2623  21.7516

          k = 0.0000 0.2812 0.3750 (  3993 PWs)   bands (ev):

   -67.3011 -36.9313 -33.4198 -33.4029 -33.3648 -13.4240 -13.2885 -13.0093
    14.9769  16.0334  17.5953  17.6275  18.1155  18.4113  20.4714  20.7978
    21.4740  22.0715

          k = 0.0000 0.2812 0.4687 (  3996 PWs)   bands (ev):

   -67.3002 -36.9225 -33.4258 -33.4072 -33.3638 -13.4910 -13.2793 -13.0032
    15.3110  15.8948  17.6138  17.8106  17.9126  18.8382  20.2103  20.7381
    21.7541  22.3585

          k = 0.0000 0.3750 0.3750 (  4002 PWs)   bands (ev):

   -67.2997 -36.9136 -33.4272 -33.4174 -33.3632 -13.4105 -13.3917 -12.9976
    15.0618  15.8209  17.3823  17.7174  18.3190  18.9042  20.6406  21.2034
    21.3040  22.5364

          k = 0.0000 0.3750 0.4687 (  3999 PWs)   bands (ev):

   -67.2989 -36.9030 -33.4326 -33.4251 -33.3622 -13.4668 -13.3881 -12.9907
    15.0699  15.6905  17.3248  17.4416  18.7458  19.6238  20.3873  21.2837
    21.5704  22.8854

          k = 0.0000 0.4687 0.4687 (  3998 PWs)   bands (ev):

   -67.2980 -36.8914 -33.4369 -33.4355 -33.3613 -13.4535 -13.4509 -12.9832
    14.9130  15.5719  17.1869  17.2262  19.5025  20.0743  20.8774  21.0870
    21.5821  23.1974

          k = 0.0937 0.0937 0.0937 (  3959 PWs)   bands (ev):

   -67.3075 -36.9887 -33.3791 -33.3791 -33.3725 -13.1024 -13.0888 -13.0888
    12.4004  15.6044  15.6044  18.3638  18.3638  18.7459  21.0355  21.0355
    22.2337  23.0038

          k = 0.0937 0.0937 0.1875 (  3966 PWs)   bands (ev):

   -67.3063 -36.9804 -33.3880 -33.3774 -33.3722 -13.1999 -13.0882 -13.0829
    12.9186  15.8457  15.8971  18.2377  18.2980  18.8440  20.7677  21.1828
    21.6941  22.3355

          k = 0.0937 0.0937 0.2812 (  3992 PWs)   bands (ev):

   -67.3048 -36.9695 -33.3990 -33.3753 -33.3723 -13.3355 -13.0773 -13.0750
    13.7049  16.2211  16.2408  18.1753  18.2092  18.8388  20.3652  21.1443
    21.4842  21.6132

          k = 0.0937 0.0937 0.3750 (  3994 PWs)   bands (ev):

   -67.3033 -36.9596 -33.4090 -33.3733 -33.3725 -13.4582 -13.0678 -13.0672
    14.6373  16.4193  16.6764  18.0987  18.2186  18.7346  19.9198  20.8477
    21.0381  21.6185

          k = 0.0937 0.0937 0.4687 (  4007 PWs)   bands (ev):

   -67.3025 -36.9537 -33.4148 -33.3726 -33.3721 -13.5303 -13.0635 -13.0611
    15.5185  16.2218  17.0760  17.9582  18.3621  18.6267  19.6052  20.5536
    20.7215  21.7516

          k = 0.0937 0.1875 0.1875 (  3984 PWs)   bands (ev):

   -67.3051 -36.9704 -33.3925 -33.3820 -33.3727 -13.2017 -13.1761 -13.0776
    13.3976  16.0374  16.1992  18.0548  18.1778  18.8065  20.8447  21.1444
    21.3785  22.0115

          k = 0.0937 0.1875 0.2812 (  3994 PWs)   bands (ev):

   -67.3036 -36.9573 -33.4029 -33.3843 -33.3725 -13.3225 -13.1741 -13.0675
    14.1048  16.2627  16.6092  17.9104  18.0767  18.5963  20.6625  21.0565
    21.3977  21.6255

          k = 0.0937 0.1875 0.3750 (  4001 PWs)   bands (ev):

   -67.3022 -36.9452 -33.4134 -33.3861 -33.3717 -13.4414 -13.1627 -13.0580
    14.8999  16.3862  16.9697  17.8338  18.0827  18.3817  20.3804  20.6790
    21.2544  21.9475

          k = 0.0937 0.1875 0.4687 (  3993 PWs)   bands (ev):

   -67.3013 -36.9381 -33.4196 -33.3872 -33.3710 -13.5113 -13.1557 -13.0522
    15.5856  16.2254  17.2036  17.7748  18.1846  18.3491  20.1867  20.3604
    21.0332  22.4066

          k = 0.0937 0.2812 0.2812 (  3989 PWs)   bands (ev):

   -67.3021 -36.9412 -33.4101 -33.3954 -33.3714 -13.3178 -13.2883 -13.0560
    14.6399  16.2621  17.1222  17.6782  18.0345  18.2509  20.8021  20.9895
    21.2440  21.9162

          k = 0.0937 0.2812 0.3750 (  3985 PWs)   bands (ev):

   -67.3007 -36.9263 -33.4196 -33.4030 -33.3701 -13.4195 -13.2854 -13.0454
    15.1356  16.1757  17.5178  17.5836  17.9952  18.2468  20.5660  20.8989
    21.3322  22.3951

          k = 0.0937 0.2812 0.4687 (  4006 PWs)   bands (ev):

   -67.2998 -36.9175 -33.4261 -33.4067 -33.3692 -13.4865 -13.2763 -13.0391
    15.4526  16.0360  17.5193  17.5963  17.9856  18.7218  20.2560  20.8554
    21.2675  22.9432

          k = 0.0937 0.3750 0.3750 (  3992 PWs)   bands (ev):

   -67.2993 -36.9089 -33.4264 -33.4175 -33.3685 -13.4064 -13.3895 -13.0339
    15.2208  15.9629  17.3499  17.6188  18.2739  18.7059  20.5846  21.1661
    21.3150  22.9044

          k = 0.0937 0.3750 0.4687 (  4002 PWs)   bands (ev):

   -67.2984 -36.8984 -33.4322 -33.4244 -33.3676 -13.4636 -13.3855 -13.0270
    15.2187  15.8353  17.2910  17.3867  18.6694  19.4253  20.3263  21.1349
    21.4240  23.1518

          k = 0.0937 0.4687 0.4687 (  3993 PWs)   bands (ev):

   -67.2976 -36.8870 -33.4360 -33.4348 -33.3666 -13.4510 -13.4487 -13.0197
    15.0633  15.7177  17.1645  17.1991  19.4466  19.9441  20.5476  20.6851
    21.6663  23.4008

          k = 0.1875 0.1875 0.1875 (  3989 PWs)   bands (ev):

   -67.3040 -36.9593 -33.3907 -33.3907 -33.3770 -13.1965 -13.1699 -13.1699
    13.8599  16.3563  16.3563  17.9459  17.9459  18.5111  21.0453  21.0453
    21.4525  22.2892

          k = 0.1875 0.1875 0.2812 (  3992 PWs)   bands (ev):

   -67.3024 -36.9447 -33.4036 -33.3884 -33.3811 -13.3100 -13.1684 -13.1618
    14.5277  16.5872  16.7028  17.7951  17.8020  18.1503  20.8943  21.1575
    21.5955  21.8075

          k = 0.1875 0.1875 0.3750 (  3994 PWs)   bands (ev):

   -67.3010 -36.9313 -33.4156 -33.3863 -33.3845 -13.4266 -13.1543 -13.1528
    15.2414  16.7391  16.8427  17.6542  17.8521  18.0668  20.7332  20.8896
    21.0569  22.4534

          k = 0.1875 0.1875 0.4687 (  3986 PWs)   bands (ev):

   -67.3002 -36.9234 -33.4228 -33.3865 -33.3850 -13.4954 -13.1499 -13.1433
    15.8120  16.4452  17.0417  17.5341  17.9976  18.3059  20.4425  20.6349
    20.7560  22.8483

          k = 0.1875 0.2812 0.2812 (  3994 PWs)   bands (ev):

   -67.3009 -36.9283 -33.4082 -33.3982 -33.3840 -13.3029 -13.2821 -13.1529
    15.0910  16.6465  17.1417  17.5750  17.6774  17.7710  20.9446  21.1613
    21.4684  22.3615

          k = 0.1875 0.2812 0.3750 (  3988 PWs)   bands (ev):

   -67.2995 -36.9131 -33.4192 -33.4030 -33.3841 -13.4075 -13.2769 -13.1415
    15.5750  16.5462  17.2876  17.4596  17.7772  17.8978  20.6937  20.9754
    21.3444  22.6695

          k = 0.1875 0.2812 0.4687 (  3991 PWs)   bands (ev):

   -67.2987 -36.9040 -33.4271 -33.4051 -33.3838 -13.4744 -13.2685 -13.1345
    15.8324  16.3774  17.2357  17.4127  17.8991  18.4486  20.3147  20.7826
    21.2370  22.9276

          k = 0.1875 0.3750 0.3750 (  3990 PWs)   bands (ev):

   -67.2981 -36.8962 -33.4243 -33.4177 -33.3828 -13.3952 -13.3833 -13.1303
    15.6737  16.3310  17.2702  17.4110  18.1316  18.2101  20.5473  20.8348
    21.6473  22.8526

          k = 0.1875 0.3750 0.4687 (  3993 PWs)   bands (ev):

   -67.2973 -36.8861 -33.4311 -33.4227 -33.3819 -13.4551 -13.3787 -13.1235
    15.6399  16.2106  17.2106  17.2731  18.4096  18.9170  20.2524  20.6478
    21.7361  23.1315

          k = 0.1875 0.4687 0.4687 (  4002 PWs)   bands (ev):

   -67.2965 -36.8754 -33.4338 -33.4329 -33.3809 -13.4444 -13.4428 -13.1170
    15.4934  16.1050  17.1133  17.1399  19.1656  19.3262  20.1390  20.3231
    21.9576  23.4599

          k = 0.2812 0.2812 0.2812 (  3998 PWs)   bands (ev):

   -67.2994 -36.9113 -33.4056 -33.4056 -33.3969 -13.2876 -13.2739 -13.2739
    15.6979  17.1486  17.1486  17.2298  17.4574  17.4574  20.9650  20.9650
    21.9998  21.9998

          k = 0.2812 0.2812 0.3750 (  3992 PWs)   bands (ev):

   -67.2980 -36.8956 -33.4194 -33.4033 -33.4017 -13.3921 -13.2663 -13.2647
    16.1338  16.8324  17.1274  17.3719  17.4866  17.7293  20.6936  20.7236
    21.8233  22.5680

          k = 0.2812 0.2812 0.4687 (  3990 PWs)   bands (ev):

   -67.2972 -36.8863 -33.4285 -33.4037 -33.4019 -13.4586 -13.2619 -13.2541
    16.2223  16.6241  17.1004  17.3316  17.7410  18.2510  20.2511  20.5765
    21.7611  22.9629

          k = 0.2812 0.3750 0.3750 (  3988 PWs)   bands (ev):

   -67.2967 -36.8795 -33.4215 -33.4180 -33.4015 -13.3806 -13.3753 -13.2548
    16.3277  16.7144  17.1870  17.3293  17.6462  17.8947  20.4938  20.5094
    22.1726  22.7937

          k = 0.2812 0.3750 0.4687 (  3992 PWs)   bands (ev):

   -67.2958 -36.8699 -33.4299 -33.4203 -33.4007 -13.4440 -13.3697 -13.2483
    16.2319  16.6259  17.1428  17.2424  17.9867  18.3746  20.1324  20.3999
    22.2446  23.1692

          k = 0.2812 0.4687 0.4687 (  4000 PWs)   bands (ev):

   -67.2950 -36.8601 -33.4309 -33.4304 -33.3995 -13.4357 -13.4350 -13.2426
    16.1311  16.5889  17.0746  17.1146  18.5716  18.5857  19.9318  20.2282
    22.4518  23.5020

          k = 0.3750 0.3750 0.3750 (  3999 PWs)   bands (ev):

   -67.2953 -36.8641 -33.4189 -33.4189 -33.4180 -13.3680 -13.3680 -13.3666
    16.6500  17.1510  17.1510  17.2247  17.6128  17.6128  20.3034  20.3034
    22.7996  22.7996

          k = 0.3750 0.3750 0.4687 (  4008 PWs)   bands (ev):

   -67.2945 -36.8549 -33.4288 -33.4185 -33.4174 -13.4338 -13.3636 -13.3590
    16.6522  16.8794  17.2018  17.3657  17.6652  18.0129  20.0178  20.2133
    22.8142  23.2733

          k = 0.3750 0.4687 0.4687 (  3994 PWs)   bands (ev):

   -67.2937 -36.8460 -33.4282 -33.4281 -33.4166 -13.4278 -13.4277 -13.3563
    16.7748  16.9865  17.0998  17.2507  17.9521  17.9959  19.8814  20.0669
    23.0703  23.5360

          k = 0.4687 0.4687 0.4687 (  3972 PWs)   bands (ev):

   -67.2929 -36.8376 -33.4268 -33.4266 -33.4266 -13.4235 -13.4235 -13.4226
    17.0513  17.2324  17.2324  17.5494  17.5494  17.6137  19.8697  19.8697
    23.5556  23.5556

     the Fermi energy is    19.6210 ev

!    total energy              =    -448.57243379 Ry
     estimated scf accuracy    <          5.1E-11 Ry
     smearing contrib. (-TS)   =      -0.00003949 Ry
     internal energy E=F+TS    =    -448.57239430 Ry

     The total energy is F=E-TS. E is the sum of the following terms:
     one-electron contribution =    -138.93101794 Ry
     hartree contribution      =      87.49508315 Ry
     xc contribution           =     -53.06165432 Ry
     ewald contribution        =    -267.91906246 Ry
     one-center paw contrib.   =     -76.15574273 Ry

     convergence has been achieved in  10 iterations

     negative rho (up, down):  9.375E-04 0.000E+00

     Forces acting on atoms (cartesian axes, Ry/au):

     atom    1 type  1   force =     0.00000000    0.00000000    0.00000000
     atom    2 type  2   force =     0.00000000    0.00000000    0.00000000

     Total force =     0.000000     Total SCF correction =     0.000000


     Computing stress (Cartesian axis) and pressure


     negative rho (up, down):  9.375E-04 0.000E+00
          total   stress  (Ry/bohr**3)                   (kbar)     P=      260.34
   0.00176972   0.00000000   0.00000000          260.34        0.00        0.00
   0.00000000   0.00176972   0.00000000            0.00      260.34        0.00
   0.00000000   0.00000000   0.00176972            0.00        0.00      260.34

     Energy error            =      1.3E-03 Ry
     Gradient error          =      0.0E+00 Ry/Bohr
     Cell gradient error     =      1.1E+01 kbar

     number of scf cycles    =   3
     number of bfgs steps    =   2

     enthalpy           old  =    -448.2833269252 Ry
     enthalpy           new  =    -448.2846468473 Ry

     CASE: enthalpy          _new < enthalpy          _old

     new trust radius        =       0.0029195838 bohr
     new conv_thr            =            1.0E-10 Ry

     new unit-cell volume =    155.64716 a.u.^3 (    23.06453 Ang^3 )
     density =      7.46678 g/cm^3

CELL_PARAMETERS (alat=  5.55330037)
   0.968640374   0.000000000   0.000000000
   0.000000000   0.968640374   0.000000000
   0.000000000   0.000000000   0.968640374

ATOMIC_POSITIONS (crystal)
Fe               0.5000000000        0.5000000000        0.5000000000
Ti               0.0000000000        0.0000000000        0.0000000000



     Writing config-only to output data dir ./TiFe.save/ :
     XML data file
     NEW-OLD atomic charge density approx. for the potential
     New effective cutoffs (rho, wfc): 1850.09  132.15

     Check: negative core charge=   -0.000002

     negative rho (up, down):  9.338E-04 0.000E+00

     total cpu time spent up to now is       67.4 secs

     per-process dynamical memory:   153.2 Mb

     Self-consistent Calculation

     iteration #  1     ecut=   124.00 Ry     beta= 0.70
     Davidson diagonalization with overlap
     ethr =  1.00E-06,  avg # of iterations =  2.0

     Threshold (ethr) on eigenvalues was too large:
     Diagonalizing with lowered threshold

     Davidson diagonalization with overlap
     ethr =  2.31E-09,  avg # of iterations =  6.4

     negative rho (up, down):  9.358E-04 0.000E+00

     total cpu time spent up to now is       69.7 secs

     total energy              =    -448.57143852 Ry
     estimated scf accuracy    <       0.00000103 Ry

     iteration #  2     ecut=   124.00 Ry     beta= 0.70
     Davidson diagonalization with overlap
     ethr =  3.69E-09,  avg # of iterations =  4.4

     negative rho (up, down):  9.366E-04 0.000E+00

[...]
     estimated scf accuracy    <       0.00030207 Ry

     iteration # 25     ecut=   124.00 Ry     beta= 0.70
     Davidson diagonalization with overlap
     ethr =  1.08E-06,  avg # of iterations =  2.5

     negative rho (up, down):  9.674E-04 0.000E+00

     total cpu time spent up to now is      114.7 secs

     total energy              =    -448.57124702 Ry
     estimated scf accuracy    <       0.00004633 Ry

     iteration # 26     ecut=   124.00 Ry     beta= 0.70
     Davidson diagonalization with overlap
     ethr =  1.65E-07,  avg # of iterations =  3.6

     negative rho (up, down):  9.632E-04 0.000E+00

     total cpu time spent up to now is      115.7 secs

     total energy              =    -448.57125693 Ry
     estimated scf accuracy    <       0.00001092 Ry

     iteration # 27     ecut=   124.00 Ry     beta= 0.70
     Davidson diagonalization with overlap
     ethr =  3.90E-08,  avg # of iterations =  3.5

     negative rho (up, down):  9.653E-04 0.000E+00

     total cpu time spent up to now is      116.7 secs

     total energy              =    -448.57125859 Ry
     estimated scf accuracy    <       0.00000194 Ry

     iteration # 28     ecut=   124.00 Ry     beta= 0.70
     Davidson diagonalization with overlap
     ethr =  6.92E-09,  avg # of iterations =  3.2

     negative rho (up, down):  9.645E-04 0.000E+00

     total cpu time spent up to now is      117.7 secs

     total energy              =    -448.57125905 Ry
     estimated scf accuracy    <       0.00000157 Ry

     iteration # 29     ecut=   124.00 Ry     beta= 0.70
     Davidson diagonalization with overlap
     ethr =  5.62E-09,  avg # of iterations =  1.0

     negative rho (up, down):  9.643E-04 0.000E+00

     total cpu time spent up to now is      118.6 secs

     total energy              =    -448.57125912 Ry
     estimated scf accuracy    <       0.00000009 Ry

     iteration # 30     ecut=   124.00 Ry     beta= 0.70
     Davidson diagonalization with overlap
     ethr =  3.16E-10,  avg # of iterations =  4.3

     negative rho (up, down):  9.643E-04 0.000E+00

     total cpu time spent up to now is      119.6 secs

     total energy              =    -448.57125915 Ry
     estimated scf accuracy    <          9.6E-09 Ry

     iteration # 31     ecut=   124.00 Ry     beta= 0.70
     Davidson diagonalization with overlap
     ethr =  3.44E-11,  avg # of iterations =  3.2

     negative rho (up, down):  9.643E-04 0.000E+00

     total cpu time spent up to now is      120.5 secs

     total energy              =    -448.57125915 Ry
     estimated scf accuracy    <          2.1E-09 Ry

     iteration # 32     ecut=   124.00 Ry     beta= 0.70
     Davidson diagonalization with overlap
     ethr =  7.40E-12,  avg # of iterations =  3.3

     negative rho (up, down):  9.643E-04 0.000E+00

     total cpu time spent up to now is      121.5 secs

     End of self-consistent calculation

          k = 0.0000 0.0000 0.0000 (  3695 PWs)   bands (ev):

   -67.2294 -36.9077 -33.2952 -33.2952 -33.2952 -12.9669 -12.9669 -12.9669
    11.9192  15.3669  15.3669  18.5756  18.5756  18.5756  21.2031  21.2031
    23.4142  23.4142

          k = 0.0000 0.0000 0.0939 (  3683 PWs)   bands (ev):

   -67.2289 -36.9050 -33.2982 -33.2946 -33.2946 -13.0080 -12.9647 -12.9647
    12.1085  15.4594  15.4778  18.5618  18.5618  18.6186  21.0783  21.2513
    23.1248  23.1248

          k = 0.0000 0.0000 0.1877 (  3655 PWs)   bands (ev):

   -67.2277 -36.8980 -33.3063 -33.2930 -33.2930 -13.1172 -12.9588 -12.9588
    12.6545  15.7305  15.7708  18.5310  18.5310  18.7392  20.7188  21.3656
    22.4547  22.4547

          k = 0.0000 0.0000 0.2816 (  3651 PWs)   bands (ev):

   -67.2261 -36.8889 -33.3167 -33.2909 -33.2909 -13.2579 -12.9510 -12.9510
    13.4919  16.1259  16.1587  18.5073  18.5073  18.9110  20.1714  21.4341
    21.7153  21.7153

          k = 0.0000 0.0000 0.3754 (  3635 PWs)   bands (ev):

   -67.2246 -36.8806 -33.3261 -33.2889 -33.2889 -13.3851 -12.9439 -12.9439
    14.5043  16.3463  16.6925  18.5086  18.5086  19.0866  19.5250  21.1087
    21.1087  21.2711

          k = 0.0000 0.0000 0.4693 (  3591 PWs)   bands (ev):

   -67.2238 -36.8757 -33.3316 -33.2877 -33.2877 -13.4597 -12.9396 -12.9396
    15.4858  16.1921  17.1770  18.5247  18.5247  18.9722  19.2015  20.7638
    20.7638  20.9529

          k = 0.0000 0.0939 0.0939 (  3669 PWs)   bands (ev):

   -67.2284 -36.9022 -33.3003 -33.2954 -33.2940 -13.0104 -13.0003 -12.9624
    12.2933  15.5535  15.5829  18.4651  18.5392  18.7318  21.0611  21.2170
    22.8057  22.8375

          k = 0.0000 0.0939 0.1877 (  3651 PWs)   bands (ev):

   -67.2272 -36.8944 -33.3080 -33.2952 -33.2924 -13.1139 -12.9976 -12.9561
    12.8250  15.8045  15.8815  18.3728  18.4850  18.8689  20.7845  21.3169
    22.1880  22.2188

          k = 0.0000 0.0939 0.2816 (  3635 PWs)   bands (ev):

   -67.2256 -36.8843 -33.3185 -33.2945 -33.2903 -13.2528 -12.9885 -12.9478
    13.6358  16.1607  16.2778  18.3257  18.4260  18.9675  20.3180  21.3067
    21.6214  21.6463

          k = 0.0000 0.0939 0.3754 (  3630 PWs)   bands (ev):

   -67.2242 -36.8751 -33.3281 -33.2938 -33.2884 -13.3784 -12.9800 -12.9402
    14.6057  16.3894  16.7473  18.3387  18.3717  18.9711  19.7910  20.8347
    21.2667  21.4995

          k = 0.0000 0.0939 0.4693 (  3630 PWs)   bands (ev):

   -67.2233 -36.8697 -33.3337 -33.2934 -33.2872 -13.4521 -12.9750 -12.9357
    15.5320  16.2288  17.1807  18.2902  18.3900  18.9000  19.4217  20.5133
    21.1173  21.3061

          k = 0.0000 0.1877 0.1877 (  3643 PWs)   bands (ev):

   -67.2260 -36.8847 -33.3140 -33.2999 -33.2909 -13.1171 -13.0886 -12.9488
    13.3098  15.9784  16.2095  18.1704  18.3828  18.9629  20.8490  21.2670
    21.6048  21.8432

          k = 0.0000 0.1877 0.2816 (  3637 PWs)   bands (ev):

   -67.2245 -36.8720 -33.3238 -33.3039 -33.2888 -13.2395 -13.0877 -12.9392
    14.0283  16.1923  16.6556  18.0318  18.2921  18.8765  20.6399  21.0035
    21.4536  21.6400

          k = 0.0000 0.1877 0.3754 (  3618 PWs)   bands (ev):

   -67.2230 -36.8603 -33.3335 -33.3069 -33.2870 -13.3605 -13.0762 -12.9304
    14.8424  16.3083  17.0971  17.9938  18.2764  18.6303  20.2893  20.6284
    21.6286  21.6694

          k = 0.0000 0.1877 0.4693 (  3629 PWs)   bands (ev):

   -67.2221 -36.8534 -33.3394 -33.3085 -33.2859 -13.4318 -13.0692 -12.9252
    15.5492  16.1725  17.3994  18.0599  18.3373  18.3705  20.0981  20.3596
    21.6891  21.7868

          k = 0.0000 0.2816 0.2816 (  3624 PWs)   bands (ev):

   -67.2229 -36.8558 -33.3320 -33.3150 -33.2869 -13.2355 -13.2022 -12.9279
    14.5542  16.1868  17.1844  17.7917  18.2710  18.5670  20.7550  20.9025
    21.3525  21.8427

          k = 0.0000 0.2816 0.3754 (  3631 PWs)   bands (ev):

   -67.2215 -36.8408 -33.3410 -33.3237 -33.2852 -13.3373 -13.2001 -12.9176
    15.0503  16.1009  17.6672  17.7024  18.1904  18.4921  20.5582  20.8842
    21.5662  22.1646

          k = 0.0000 0.2816 0.4693 (  3625 PWs)   bands (ev):

   -67.2206 -36.8319 -33.3469 -33.3282 -33.2842 -13.4051 -13.1907 -12.9114
    15.3804  15.9646  17.6860  17.8838  17.9893  18.9223  20.2964  20.8238
    21.8497  22.4532

          k = 0.0000 0.3754 0.3754 (  3628 PWs)   bands (ev):

   -67.2200 -36.8228 -33.3485 -33.3385 -33.2836 -13.3237 -13.3045 -12.9057
    15.1302  15.8884  17.4531  17.7902  18.3975  18.9890  20.7296  21.2917
    21.3961  22.6320

          k = 0.0000 0.3754 0.4693 (  3623 PWs)   bands (ev):

   -67.2192 -36.8121 -33.3540 -33.3463 -33.2826 -13.3805 -13.3008 -12.8986
    15.1352  15.7583  17.3954  17.5128  18.8267  19.7116  20.4757  21.3727
    21.6653  22.9829

          k = 0.0000 0.4693 0.4693 (  3620 PWs)   bands (ev):

   -67.2184 -36.8002 -33.3583 -33.3569 -33.2816 -13.3670 -13.3644 -12.8911
    14.9763  15.6387  17.2567  17.2963  19.5858  20.1616  20.9710  21.1815
    21.6728  23.2966

          k = 0.0939 0.0939 0.0939 (  3653 PWs)   bands (ev):

   -67.2280 -36.8990 -33.2997 -33.2997 -33.2929 -13.0118 -12.9980 -12.9980
    12.4744  15.6661  15.6661  18.4399  18.4399  18.8243  21.1234  21.1234
    22.3274  23.1016

          k = 0.0939 0.0939 0.1877 (  3652 PWs)   bands (ev):

   -67.2268 -36.8906 -33.3087 -33.2980 -33.2926 -13.1105 -12.9974 -12.9920
    12.9942  15.9084  15.9613  18.3131  18.3739  18.9231  20.8539  21.2719
    21.7850  22.4299

          k = 0.0939 0.0939 0.2816 (  3640 PWs)   bands (ev):

   -67.2252 -36.8797 -33.3198 -33.2958 -33.2927 -13.2478 -12.9864 -12.9840
    13.7824  16.2854  16.3086  18.2506  18.2848  18.9179  20.4489  21.2339
    21.5746  21.7040

          k = 0.0939 0.0939 0.3754 (  3628 PWs)   bands (ev):

   -67.2238 -36.8697 -33.3297 -33.2938 -33.2930 -13.3720 -12.9768 -12.9761
    14.7160  16.4913  16.7426  18.1738  18.2946  18.8129  20.0010  20.9369
    21.1259  21.7107

          k = 0.0939 0.0939 0.4693 (  3621 PWs)   bands (ev):

   -67.2229 -36.8637 -33.3355 -33.2931 -33.2926 -13.4450 -12.9724 -12.9700
    15.5968  16.2977  17.1440  18.0326  18.4393  18.7042  19.6847  20.6425
    20.8077  21.8452

          k = 0.0939 0.1877 0.1877 (  3644 PWs)   bands (ev):

   -67.2256 -36.8805 -33.3133 -33.3026 -33.2931 -13.1124 -13.0863 -12.9867
    13.4744  16.1016  16.2651  18.1292  18.2532  18.8856  20.9315  21.2332
    21.4680  22.1042

          k = 0.0939 0.1877 0.2816 (  3633 PWs)   bands (ev):

   -67.2240 -36.8672 -33.3238 -33.3049 -33.2930 -13.2347 -13.0844 -12.9764
    14.1827  16.3287  16.6779  17.9841  18.1521  18.6742  20.7480  21.1457
    21.4879  21.7162

          k = 0.0939 0.1877 0.3754 (  3626 PWs)   bands (ev):

   -67.2226 -36.8551 -33.3343 -33.3067 -33.2922 -13.3549 -13.0728 -12.9668
    14.9776  16.4555  17.0403  17.9074  18.1589  18.4583  20.4641  20.7668
    21.3446  22.0409

          k = 0.0939 0.1877 0.4693 (  3626 PWs)   bands (ev):

   -67.2217 -36.8478 -33.3405 -33.3080 -33.2915 -13.4257 -13.0658 -12.9610
    15.6611  16.2987  17.2740  17.8488  18.2606  18.4271  20.2694  20.4471
    21.1226  22.5031

          k = 0.0939 0.2816 0.2816 (  3632 PWs)   bands (ev):

   -67.2225 -36.8509 -33.3312 -33.3160 -33.2919 -13.2299 -13.1999 -12.9648
    14.7170  16.3290  17.1939  17.7506  18.1110  18.3269  20.8902  21.0765
    21.3342  22.0087

          k = 0.0939 0.2816 0.3754 (  3635 PWs)   bands (ev):

   -67.2210 -36.8358 -33.3407 -33.3238 -33.2905 -13.3327 -13.1970 -12.9541
    15.2095  16.2439  17.5900  17.6574  18.0701  18.3264  20.6534  20.9857
    21.4233  22.4905

          k = 0.0939 0.2816 0.4693 (  3631 PWs)   bands (ev):

   -67.2202 -36.8268 -33.3472 -33.3277 -33.2897 -13.4005 -13.1878 -12.9477
    15.5225  16.1064  17.5911  17.6692  18.0624  18.8048  20.3424  20.9416
    21.3590  23.0407

          k = 0.0939 0.3754 0.3754 (  3621 PWs)   bands (ev):

   -67.2196 -36.8180 -33.3477 -33.3386 -33.2890 -13.3194 -13.3022 -12.9424
    15.2897  16.0312  17.4206  17.6912  18.3523  18.7897  20.6725  21.2576
    21.4037  23.0025

          k = 0.0939 0.3754 0.4693 (  3614 PWs)   bands (ev):

   -67.2188 -36.8074 -33.3535 -33.3457 -33.2880 -13.3773 -13.2982 -12.9354
    15.2845  15.9038  17.3615  17.4578  18.7503  19.5124  20.4138  21.2267
    21.5135  23.2505

          k = 0.0939 0.4693 0.4693 (  3617 PWs)   bands (ev):

   -67.2179 -36.7958 -33.3575 -33.3562 -33.2870 -13.3645 -13.3621 -12.9281
    15.1272  15.7853  17.2344  17.2691  19.5301  20.0323  20.6374  20.7767
    21.7572  23.5004

          k = 0.1877 0.1877 0.1877 (  3647 PWs)   bands (ev):

   -67.2244 -36.8693 -33.3115 -33.3115 -33.2973 -13.1071 -13.0801 -13.0801
    13.9379  16.4228  16.4228  18.0199  18.0199  18.5889  21.1335  21.1335
    21.5428  22.3834

          k = 0.1877 0.1877 0.2816 (  3639 PWs)   bands (ev):

   -67.2228 -36.8545 -33.3245 -33.3092 -33.3015 -13.2220 -13.0785 -13.0719
    14.6066  16.6546  16.7726  17.8685  17.8756  18.2260  20.9814  21.2475
    21.6862  21.9000

          k = 0.1877 0.1877 0.3754 (  3631 PWs)   bands (ev):

   -67.2214 -36.8409 -33.3366 -33.3070 -33.3051 -13.3400 -13.0644 -13.0627
    15.3194  16.8116  16.9109  17.7275  17.9267  18.1421  20.8193  20.9796
    21.1449  22.5496

          k = 0.1877 0.1877 0.4693 (  3625 PWs)   bands (ev):

   -67.2206 -36.8329 -33.3438 -33.3072 -33.3057 -13.4095 -13.0599 -13.0531
    15.8874  16.5190  17.1104  17.6075  18.0736  18.3841  20.5310  20.7198
    20.8428  22.9452

          k = 0.1877 0.2816 0.2816 (  3628 PWs)   bands (ev):

   -67.2213 -36.8378 -33.3292 -33.3190 -33.3046 -13.2148 -13.1936 -13.0629
    15.1698  16.7154  17.2133  17.6474  17.7509  17.8450  21.0332  21.2514
    21.5578  22.4896

          k = 0.1877 0.2816 0.3754 (  3623 PWs)   bands (ev):

   -67.2199 -36.8223 -33.3403 -33.3239 -33.3048 -13.3206 -13.1884 -13.0513
    15.6507  16.6163  17.3589  17.5321  17.8528  17.9740  20.7817  21.0649
    21.4330  22.7652

          k = 0.1877 0.2816 0.4693 (  3621 PWs)   bands (ev):

   -67.2190 -36.8131 -33.3482 -33.3260 -33.3044 -13.3883 -13.1799 -13.0443
    15.9036  16.4490  17.3060  17.4855  17.9763  18.5292  20.4019  20.8708
    21.3249  23.0249

          k = 0.1877 0.3754 0.3754 (  3622 PWs)   bands (ev):

   -67.2185 -36.8051 -33.3455 -33.3388 -33.3034 -13.3081 -13.2961 -13.0400
    15.7441  16.4012  17.3408  17.4827  18.2096  18.2910  20.6345  20.9245
    21.7376  22.9492

          k = 0.1877 0.3754 0.4693 (  3625 PWs)   bands (ev):

   -67.2176 -36.7949 -33.3524 -33.3439 -33.3026 -13.3687 -13.2914 -13.0332
    15.7071  16.2809  17.2810  17.3442  18.4902  19.0011  20.3391  20.7362
    21.8269  23.2296

          k = 0.1877 0.4693 0.4693 (  3617 PWs)   bands (ev):

   -67.2168 -36.7840 -33.3552 -33.3543 -33.3015 -13.3578 -13.3562 -13.0265
    15.5589  16.1745  17.1833  17.2101  19.2492  19.4125  20.2259  20.4098
    22.0498  23.5596

          k = 0.2816 0.2816 0.2816 (  3632 PWs)   bands (ev):

   -67.2198 -36.8205 -33.3266 -33.3266 -33.3176 -13.1992 -13.1854 -13.1854
    15.7784  17.2196  17.2196  17.3012  17.5301  17.5301  21.0542  21.0542
    22.0918  22.0918

          k = 0.2816 0.2816 0.3754 (  3625 PWs)   bands (ev):

   -67.2183 -36.8046 -33.3406 -33.3242 -33.3226 -13.3050 -13.1778 -13.1760
    16.2108  16.9033  17.1976  17.4453  17.5607  17.8046  20.7822  20.8115
    21.9142  22.6630

          k = 0.2816 0.2816 0.4693 (  3619 PWs)   bands (ev):

   -67.2175 -36.7951 -33.3497 -33.3247 -33.3228 -13.3722 -13.1732 -13.1652
    16.2936  16.6956  17.1700  17.4054  17.8185  18.3303  20.3380  20.6635
    21.8516  23.0602

          k = 0.2816 0.3754 0.3754 (  3624 PWs)   bands (ev):

   -67.2169 -36.7882 -33.3427 -33.3391 -33.3224 -13.2933 -13.2880 -13.1660
    16.3995  16.7863  17.2576  17.4022  17.7236  17.9718  20.5807  20.5971
    22.2654  22.8898

          k = 0.2816 0.3754 0.4693 (  3628 PWs)   bands (ev):

   -67.2161 -36.7784 -33.3512 -33.3415 -33.3216 -13.3575 -13.2823 -13.1594
    16.3008  16.6974  17.2133  17.3150  18.0660  18.4550  20.2184  20.4864
    22.3379  23.2674

          k = 0.2816 0.4693 0.4693 (  3635 PWs)   bands (ev):

   -67.2153 -36.7684 -33.3523 -33.3518 -33.3204 -13.3491 -13.3483 -13.1537
    16.1989  16.6606  17.1451  17.1856  18.6537  18.6671  20.0165  20.3143
    22.5464  23.6019

          k = 0.3754 0.3754 0.3754 (  3638 PWs)   bands (ev):

   -67.2156 -36.7725 -33.3401 -33.3401 -33.3392 -13.2806 -13.2806 -13.2792
    16.7190  17.2221  17.2221  17.3047  17.6883  17.6883  20.3897  20.3897
    22.8957  22.8957

          k = 0.3754 0.3754 0.4693 (  3626 PWs)   bands (ev):

   -67.2147 -36.7632 -33.3501 -33.3397 -33.3385 -13.3472 -13.2762 -13.2715
    16.7215  16.9509  17.2735  17.4398  17.7439  18.0909  20.1029  20.2989
    22.9103  23.3721

          k = 0.3754 0.4693 0.4693 (  3618 PWs)   bands (ev):

   -67.2139 -36.7541 -33.3495 -33.3494 -33.3377 -13.3411 -13.3410 -13.2688
    16.8448  17.0591  17.1713  17.3243  18.0304  18.0738  19.9657  20.1520
    23.1679  23.6362

          k = 0.4693 0.4693 0.4693 (  3596 PWs)   bands (ev):

   -67.2131 -36.7456 -33.3481 -33.3479 -33.3479 -13.3369 -13.3369 -13.3359
    17.1231  17.3058  17.3058  17.6240  17.6240  17.6900  19.9538  19.9538
    23.6558  23.6558

     the Fermi energy is    19.7043 ev

!    total energy              =    -448.57125915 Ry
     estimated scf accuracy    <          1.0E-11 Ry
     smearing contrib. (-TS)   =      -0.00003692 Ry
     internal energy E=F+TS    =    -448.57122223 Ry

     The total energy is F=E-TS. E is the sum of the following terms:
     one-electron contribution =    -138.43066173 Ry
     hartree contribution      =      87.33209049 Ry
     xc contribution           =     -53.06905590 Ry
     ewald contribution        =    -268.24780361 Ry
     one-center paw contrib.   =     -76.15579149 Ry

     convergence has been achieved in  32 iterations

     negative rho (up, down):  9.643E-04 0.000E+00

     Forces acting on atoms (cartesian axes, Ry/au):

     atom    1 type  1   force =     0.00000000    0.00000000    0.00000000
     atom    2 type  2   force =     0.00000000    0.00000000    0.00000000

     Total force =     0.000000     Total SCF correction =     0.000000


     Computing stress (Cartesian axis) and pressure


     negative rho (up, down):  9.643E-04 0.000E+00
          total   stress  (Ry/bohr**3)                   (kbar)     P=      270.23
   0.00183700   0.00000000   0.00000000          270.23        0.00        0.00
   0.00000000   0.00183700   0.00000000            0.00      270.23        0.00
   0.00000000   0.00000000   0.00183700            0.00        0.00      270.23


     Writing all to output data dir ./TiFe.save/ :
     XML data file, charge density, pseudopotentials, collected wavefunctions

     init_run     :      2.22s CPU      2.28s WALL (       2 calls)
     electrons    :    104.44s CPU    109.55s WALL (       6 calls)
     update_pot   :      0.32s CPU      0.34s WALL (       4 calls)
     forces       :      1.36s CPU      1.46s WALL (       6 calls)
     stress       :      8.03s CPU      8.32s WALL (       6 calls)

     Called by init_run:
     wfcinit      :      0.57s CPU      0.59s WALL (       2 calls)
     potinit      :      0.44s CPU      0.45s WALL (       2 calls)
     hinit0       :      0.89s CPU      0.90s WALL (       2 calls)

     Called by electrons:
     c_bands      :     63.14s CPU     64.68s WALL (     105 calls)
     sum_band     :     22.44s CPU     24.34s WALL (     105 calls)
     v_of_rho     :      2.13s CPU      2.30s WALL (     109 calls)
     newd         :     11.87s CPU     13.28s WALL (     109 calls)
     PAW_pot      :      5.67s CPU      5.74s WALL (     113 calls)
     mix_rho      :      0.23s CPU      0.26s WALL (     105 calls)

     Called by c_bands:
     init_us_2    :      1.76s CPU      1.82s WALL (   12768 calls)
     cegterg      :     60.21s CPU     61.65s WALL (    5880 calls)

     Called by *egterg:
     cdiaghg      :      7.29s CPU      7.44s WALL (   23389 calls)
     h_psi        :     45.82s CPU     46.97s WALL (   23837 calls)
     s_psi        :      1.19s CPU      1.23s WALL (   23837 calls)
     g_psi        :      0.29s CPU      0.29s WALL (   17845 calls)

     Called by h_psi:
     h_psi:calbec :      1.68s CPU      1.72s WALL (   23837 calls)
     vloc_psi     :     42.70s CPU     43.78s WALL (   23837 calls)
     add_vuspsi   :      1.22s CPU      1.25s WALL (   23837 calls)

     General routines
     calbec       :      2.74s CPU      2.80s WALL (   35653 calls)
     fft          :      1.84s CPU      2.07s WALL (    1561 calls)
     ffts         :      0.30s CPU      0.31s WALL (     214 calls)
     fftw         :     38.34s CPU     39.28s WALL (  669090 calls)
     interpolate  :      0.38s CPU      0.41s WALL (     109 calls)

     Parallel routines

     PWSCF        :    117.40s CPU    123.20s WALL


   This run was terminated on:  15:44:48  25Oct2025            

=------------------------------------------------------------------------------=
   JOB DONE.
=------------------------------------------------------------------------------=
