
     Program PWSCF v.7.4 starts on 25Oct2025 at 15:31:54 

     This program is part of the open-source Quantum ESPRESSO suite
     for quantum simulation of materials; please cite
         "P. Giannozzi et al., J. Phys.:Condens. Matter 21 395502 (2009);
         "P. Giannozzi et al., J. Phys.:Condens. Matter 29 465901 (2017);
         "P. Giannozzi et al., J. Chem. Phys. 152 154105 (2020);
          URL http://www.quantum-espresso.org", 
     in publications or presentations arising from this work. More details at
     http://www.quantum-espresso.org/quote

     Parallel version (MPI & OpenMP), running on       8 processor cores
     Number of MPI processes:                 8
     Threads/MPI process:                     1

     MPI processes distributed on     1 nodes
     217061 MiB available memory on the printing compute node when the environment starts

     Reading input from TiFe_relaxed3.in

     Current dimensions of program PWSCF are:
     Max number of different atomic species (ntypx) = 10
     Max number of k-points (npk) =  40000
     Max angular momentum in pseudopotentials (lmaxx) =  4

     File ./TiFe.update deleted, as requested

     File ./TiFe.bfgs deleted, as requested
     file Fe.pbe-spn-kjpaw_psl.0.2.1.UPF: wavefunction(s)  3D renormalized

     IMPORTANT: XC functional enforced from input :
     Exchange-correlation= PBE
                           (   1   4   3   4   0   0   0)
     Any further DFT definition will be discarded
     Please, verify this is what you really want

     Message from routine setup:
     using ibrav=0 with symmetry is DISCOURAGED, use correct ibrav instead

     R & G space division:  proc/nbgrp/npool/nimage =       8
     Subspace diagonalization in iterative solution of the eigenvalue problem:
     a serial algorithm will be used


     Parallelization info
     --------------------
     sticks:   dense  smooth     PW     G-vecs:    dense   smooth      PW
     Min         532     151     43                26154     3989     617
     Max         533     152     44                26155     3993     620
     Sum        4257    1209    349               209233    31919    4945

     Using Slab Decomposition



     bravais-lattice index     =            0
     lattice parameter (alat)  =       5.5533  a.u.
     unit-cell volume          =     171.2590 (a.u.)^3
     number of atoms/cell      =            2
     number of atomic types    =            2
     number of electrons       =        28.00
     number of Kohn-Sham states=           18
     kinetic-energy cutoff     =     124.0000  Ry
     charge density cutoff     =    1736.0000  Ry
     scf convergence threshold =      1.0E-08
     mixing beta               =       0.7000
     number of iterations used =            8  plain     mixing
     energy convergence thresh.=      1.0E-04
     force convergence thresh. =      1.0E-03
     press convergence thresh. =      5.0E-01
     Exchange-correlation= PBE
                           (   1   4   3   4   0   0   0)
     nstep                     =           50


     celldm(1)=   5.553300  celldm(2)=   0.000000  celldm(3)=   0.000000
     celldm(4)=   0.000000  celldm(5)=   0.000000  celldm(6)=   0.000000

     crystal axes: (cart. coord. in units of alat)
               a(1) = (   1.000000   0.000000   0.000000 )  
               a(2) = (   0.000000   1.000000   0.000000 )  
               a(3) = (   0.000000   0.000000   1.000000 )  

     reciprocal axes: (cart. coord. in units 2 pi/alat)
               b(1) = (  1.000000  0.000000  0.000000 )  
               b(2) = (  0.000000  1.000000  0.000000 )  
               b(3) = (  0.000000  0.000000  1.000000 )  


     PseudoPot. # 1 for Fe read from file:
     ../../pseudos/Fe.pbe-spn-kjpaw_psl.0.2.1.UPF
     MD5 check sum: e86618425769142926afa95317d90200
     Pseudo is Projector augmented-wave + core cor, Zval = 16.0
     Generated using "atomic" code by A. Dal Corso  v.5.0.99 svn rev. 10869
     Shape of augmentation charge: PSQ
     Using radial grid of 1191 points,  6 beta functions with: 
                l(1) =   0
                l(2) =   0
                l(3) =   1
                l(4) =   1
                l(5) =   2
                l(6) =   2
     Q(r) pseudized with 0 coefficients 


     PseudoPot. # 2 for Ti read from file:
     ../../pseudos/ti_pbe_v1.4.uspp.F.UPF
     MD5 check sum: 88a00a6731bd790ddea75d31a80cb452
     Pseudo is Ultrasoft + core correction, Zval = 12.0
     Generated by new atomic code, or converted to UPF format
     Using radial grid of  851 points,  6 beta functions with: 
                l(1) =   0
                l(2) =   0
                l(3) =   1
                l(4) =   1
                l(5) =   2
                l(6) =   2
     Q(r) pseudized with  6 coefficients,  rinner =    1.000   1.000   1.000
                                                       1.000   1.000

     atomic species   valence    mass     pseudopotential
     Fe               16.00    55.84500     Fe( 1.00)
     Ti               12.00    47.86700     Ti( 1.00)

     48 Sym. Ops., with inversion, found



   Cartesian axes

     site n.     atom                  positions (alat units)
         1        Fe     tau(   1) = (   0.5000000   0.5000000   0.5000000  )
         2        Ti     tau(   2) = (   0.0000000   0.0000000   0.0000000  )

     number of k points=    56  Marzari-Vanderbilt smearing, width (Ry)=  0.0050
                       cart. coord. in units 2pi/alat
        k(    1) = (   0.0000000   0.0000000   0.0000000), wk =   0.0015026
        k(    2) = (   0.0000000   0.0000000   0.0909091), wk =   0.0090158
        k(    3) = (   0.0000000   0.0000000   0.1818182), wk =   0.0090158
        k(    4) = (   0.0000000   0.0000000   0.2727273), wk =   0.0090158
        k(    5) = (   0.0000000   0.0000000   0.3636364), wk =   0.0090158
        k(    6) = (   0.0000000   0.0000000   0.4545455), wk =   0.0090158
        k(    7) = (   0.0000000   0.0909091   0.0909091), wk =   0.0180316
        k(    8) = (   0.0000000   0.0909091   0.1818182), wk =   0.0360631
        k(    9) = (   0.0000000   0.0909091   0.2727273), wk =   0.0360631
        k(   10) = (   0.0000000   0.0909091   0.3636364), wk =   0.0360631
        k(   11) = (   0.0000000   0.0909091   0.4545455), wk =   0.0360631
        k(   12) = (   0.0000000   0.1818182   0.1818182), wk =   0.0180316
        k(   13) = (   0.0000000   0.1818182   0.2727273), wk =   0.0360631
        k(   14) = (   0.0000000   0.1818182   0.3636364), wk =   0.0360631
        k(   15) = (   0.0000000   0.1818182   0.4545455), wk =   0.0360631
        k(   16) = (   0.0000000   0.2727273   0.2727273), wk =   0.0180316
        k(   17) = (   0.0000000   0.2727273   0.3636364), wk =   0.0360631
        k(   18) = (   0.0000000   0.2727273   0.4545455), wk =   0.0360631
        k(   19) = (   0.0000000   0.3636364   0.3636364), wk =   0.0180316
        k(   20) = (   0.0000000   0.3636364   0.4545455), wk =   0.0360631
        k(   21) = (   0.0000000   0.4545455   0.4545455), wk =   0.0180316
        k(   22) = (   0.0909091   0.0909091   0.0909091), wk =   0.0120210
        k(   23) = (   0.0909091   0.0909091   0.1818182), wk =   0.0360631
        k(   24) = (   0.0909091   0.0909091   0.2727273), wk =   0.0360631
        k(   25) = (   0.0909091   0.0909091   0.3636364), wk =   0.0360631
        k(   26) = (   0.0909091   0.0909091   0.4545455), wk =   0.0360631
        k(   27) = (   0.0909091   0.1818182   0.1818182), wk =   0.0360631
        k(   28) = (   0.0909091   0.1818182   0.2727273), wk =   0.0721262
        k(   29) = (   0.0909091   0.1818182   0.3636364), wk =   0.0721262
        k(   30) = (   0.0909091   0.1818182   0.4545455), wk =   0.0721262
        k(   31) = (   0.0909091   0.2727273   0.2727273), wk =   0.0360631
        k(   32) = (   0.0909091   0.2727273   0.3636364), wk =   0.0721262
        k(   33) = (   0.0909091   0.2727273   0.4545455), wk =   0.0721262
        k(   34) = (   0.0909091   0.3636364   0.3636364), wk =   0.0360631
        k(   35) = (   0.0909091   0.3636364   0.4545455), wk =   0.0721262
        k(   36) = (   0.0909091   0.4545455   0.4545455), wk =   0.0360631
        k(   37) = (   0.1818182   0.1818182   0.1818182), wk =   0.0120210
        k(   38) = (   0.1818182   0.1818182   0.2727273), wk =   0.0360631
        k(   39) = (   0.1818182   0.1818182   0.3636364), wk =   0.0360631
        k(   40) = (   0.1818182   0.1818182   0.4545455), wk =   0.0360631
        k(   41) = (   0.1818182   0.2727273   0.2727273), wk =   0.0360631
        k(   42) = (   0.1818182   0.2727273   0.3636364), wk =   0.0721262
        k(   43) = (   0.1818182   0.2727273   0.4545455), wk =   0.0721262
        k(   44) = (   0.1818182   0.3636364   0.3636364), wk =   0.0360631
        k(   45) = (   0.1818182   0.3636364   0.4545455), wk =   0.0721262
        k(   46) = (   0.1818182   0.4545455   0.4545455), wk =   0.0360631
        k(   47) = (   0.2727273   0.2727273   0.2727273), wk =   0.0120210
        k(   48) = (   0.2727273   0.2727273   0.3636364), wk =   0.0360631
        k(   49) = (   0.2727273   0.2727273   0.4545455), wk =   0.0360631
        k(   50) = (   0.2727273   0.3636364   0.3636364), wk =   0.0360631
        k(   51) = (   0.2727273   0.3636364   0.4545455), wk =   0.0721262
        k(   52) = (   0.2727273   0.4545455   0.4545455), wk =   0.0360631
        k(   53) = (   0.3636364   0.3636364   0.3636364), wk =   0.0120210
        k(   54) = (   0.3636364   0.3636364   0.4545455), wk =   0.0360631
        k(   55) = (   0.3636364   0.4545455   0.4545455), wk =   0.0360631
        k(   56) = (   0.4545455   0.4545455   0.4545455), wk =   0.0120210

     Dense  grid:   209233 G-vectors     FFT dimensions: (  75,  75,  75)

     Smooth grid:    31919 G-vectors     FFT dimensions: (  40,  40,  40)

     Estimated max dynamical RAM per process >     117.03 MB

     Estimated total dynamical RAM >     936.25 MB

     Check: negative core charge=   -0.000002

     Initial potential from superposition of free atoms

     starting charge      26.9995, renormalised to      28.0000

     negative rho (up, down):  1.347E-03 0.000E+00
     Starting wfcs are   23 randomized atomic wfcs
     Checking if some PAW data can be deallocated... 

     total cpu time spent up to now is        1.4 secs

     per-process dynamical memory:   142.7 Mb

     Self-consistent Calculation

     iteration #  1     ecut=   124.00 Ry     beta= 0.70
     Davidson diagonalization with overlap
     ethr =  1.00E-02,  avg # of iterations =  2.1

     negative rho (up, down):  7.937E-05 0.000E+00

     total cpu time spent up to now is        2.5 secs

     total energy              =    -434.89047275 Ry
     estimated scf accuracy    <      17.46535633 Ry

     iteration #  2     ecut=   124.00 Ry     beta= 0.70
     Davidson diagonalization with overlap
     ethr =  1.00E-02,  avg # of iterations =  6.0

     negative rho (up, down):  2.353E-05 0.000E+00

     total cpu time spent up to now is        4.0 secs

     total energy              =    -448.51249463 Ry
     estimated scf accuracy    <      66.10195194 Ry

     iteration #  3     ecut=   124.00 Ry     beta= 0.70
     Davidson diagonalization with overlap
     ethr =  1.00E-02,  avg # of iterations =  3.1

     negative rho (up, down):  2.377E-04 0.000E+00

     total cpu time spent up to now is        5.2 secs

     total energy              =    -448.59203340 Ry
     estimated scf accuracy    <      16.77106202 Ry

     iteration #  4     ecut=   124.00 Ry     beta= 0.70
     Davidson diagonalization with overlap
     ethr =  1.00E-02,  avg # of iterations =  2.2

     negative rho (up, down):  2.766E-04 0.000E+00

     total cpu time spent up to now is        6.2 secs

     total energy              =    -449.11252552 Ry
     estimated scf accuracy    <       4.68111793 Ry

     iteration #  5     ecut=   124.00 Ry     beta= 0.70
     Davidson diagonalization with overlap
     ethr =  1.00E-02,  avg # of iterations =  1.0

     negative rho (up, down):  3.285E-04 0.000E+00

     total cpu time spent up to now is        7.1 secs

     total energy              =    -449.11683000 Ry
     estimated scf accuracy    <       4.27451567 Ry

     iteration #  6     ecut=   124.00 Ry     beta= 0.70
     Davidson diagonalization with overlap
     ethr =  1.00E-02,  avg # of iterations =  1.0

     negative rho (up, down):  1.118E-03 0.000E+00

     total cpu time spent up to now is        8.0 secs

     total energy              =    -447.89068457 Ry
     estimated scf accuracy    <       4.50163493 Ry

     iteration #  7     ecut=   124.00 Ry     beta= 0.70
     Davidson diagonalization with overlap
     ethr =  1.00E-02,  avg # of iterations =  3.4

     negative rho (up, down):  1.015E-03 0.000E+00

     total cpu time spent up to now is        9.0 secs

     total energy              =    -448.58840447 Ry
     estimated scf accuracy    <       3.89651472 Ry

     iteration #  8     ecut=   124.00 Ry     beta= 0.70
     Davidson diagonalization with overlap
     ethr =  1.00E-02,  avg # of iterations =  1.0

     negative rho (up, down):  7.976E-04 0.000E+00

     total cpu time spent up to now is        9.9 secs

     total energy              =    -448.43997417 Ry
     estimated scf accuracy    <       1.27715295 Ry

     iteration #  9     ecut=   124.00 Ry     beta= 0.70
     Davidson diagonalization with overlap
     ethr =  4.56E-03,  avg # of iterations =  1.9

     negative rho (up, down):  7.977E-04 0.000E+00

     total cpu time spent up to now is       10.8 secs

     total energy              =    -448.60539805 Ry
     estimated scf accuracy    <       0.26863249 Ry

     iteration # 10     ecut=   124.00 Ry     beta= 0.70
     Davidson diagonalization with overlap
     ethr =  9.59E-04,  avg # of iterations =  1.3

     negative rho (up, down):  8.075E-04 0.000E+00

     total cpu time spent up to now is       11.7 secs

     total energy              =    -448.61289738 Ry
     estimated scf accuracy    <       0.28159432 Ry

     iteration # 11     ecut=   124.00 Ry     beta= 0.70
     Davidson diagonalization with overlap
     ethr =  9.59E-04,  avg # of iterations =  1.0

     negative rho (up, down):  7.617E-04 0.000E+00

     total cpu time spent up to now is       12.6 secs

     total energy              =    -448.67957078 Ry
     estimated scf accuracy    <       0.34549008 Ry

     iteration # 12     ecut=   124.00 Ry     beta= 0.70
     Davidson diagonalization with overlap
     ethr =  9.59E-04,  avg # of iterations =  1.8

     negative rho (up, down):  7.932E-04 0.000E+00

     total cpu time spent up to now is       13.5 secs

     total energy              =    -448.62277485 Ry
     estimated scf accuracy    <       1.28404054 Ry

     iteration # 13     ecut=   124.00 Ry     beta= 0.70
     Davidson diagonalization with overlap
     ethr =  9.59E-04,  avg # of iterations =  1.2

     negative rho (up, down):  9.274E-04 0.000E+00

     total cpu time spent up to now is       14.4 secs

     total energy              =    -448.63537755 Ry
     estimated scf accuracy    <       0.58154385 Ry

     iteration # 14     ecut=   124.00 Ry     beta= 0.70
     Davidson diagonalization with overlap
     ethr =  9.59E-04,  avg # of iterations =  1.0

     negative rho (up, down):  1.025E-03 0.000E+00

     total cpu time spent up to now is       15.3 secs

     total energy              =    -448.61055071 Ry
     estimated scf accuracy    <       0.50368914 Ry

     iteration # 15     ecut=   124.00 Ry     beta= 0.70
     Davidson diagonalization with overlap
     ethr =  9.59E-04,  avg # of iterations =  1.0

     negative rho (up, down):  1.032E-03 0.000E+00

     total cpu time spent up to now is       16.2 secs

     total energy              =    -448.61143942 Ry
     estimated scf accuracy    <       0.31963621 Ry

     iteration # 16     ecut=   124.00 Ry     beta= 0.70
     Davidson diagonalization with overlap
     ethr =  9.59E-04,  avg # of iterations =  1.0

     negative rho (up, down):  1.077E-03 0.000E+00

     total cpu time spent up to now is       17.1 secs

     total energy              =    -448.59313187 Ry
     estimated scf accuracy    <       0.28283031 Ry

     iteration # 17     ecut=   124.00 Ry     beta= 0.70
     Davidson diagonalization with overlap
     ethr =  9.59E-04,  avg # of iterations =  1.0

     negative rho (up, down):  1.074E-03 0.000E+00

     total cpu time spent up to now is       17.9 secs

     total energy              =    -448.60188466 Ry
     estimated scf accuracy    <       0.07727334 Ry

     iteration # 18     ecut=   124.00 Ry     beta= 0.70
     Davidson diagonalization with overlap
     ethr =  2.76E-04,  avg # of iterations =  1.6

     negative rho (up, down):  9.925E-04 0.000E+00

     total cpu time spent up to now is       18.9 secs

     total energy              =    -448.58361171 Ry
     estimated scf accuracy    <       0.14906512 Ry

     iteration # 19     ecut=   124.00 Ry     beta= 0.70
     Davidson diagonalization with overlap
     ethr =  2.76E-04,  avg # of iterations =  1.1

     negative rho (up, down):  9.436E-04 0.000E+00

     total cpu time spent up to now is       19.7 secs

     total energy              =    -448.59412596 Ry
     estimated scf accuracy    <       0.04848605 Ry

     iteration # 20     ecut=   124.00 Ry     beta= 0.70
     Davidson diagonalization with overlap
     ethr =  1.73E-04,  avg # of iterations =  1.1

     negative rho (up, down):  1.023E-03 0.000E+00

     total cpu time spent up to now is       20.6 secs

     total energy              =    -448.57755582 Ry
     estimated scf accuracy    <       0.17402921 Ry

     iteration # 21     ecut=   124.00 Ry     beta= 0.70
     Davidson diagonalization with overlap
     ethr =  1.73E-04,  avg # of iterations =  2.1

     negative rho (up, down):  1.012E-03 0.000E+00

     total cpu time spent up to now is       21.6 secs

     total energy              =    -448.58650556 Ry
     estimated scf accuracy    <       0.00384583 Ry

     iteration # 22     ecut=   124.00 Ry     beta= 0.70
     Davidson diagonalization with overlap
     ethr =  1.37E-05,  avg # of iterations =  4.6

     negative rho (up, down):  1.004E-03 0.000E+00

     total cpu time spent up to now is       22.6 secs

     total energy              =    -448.58691254 Ry
     estimated scf accuracy    <       0.00198474 Ry

     iteration # 23     ecut=   124.00 Ry     beta= 0.70
     Davidson diagonalization with overlap
     ethr =  7.09E-06,  avg # of iterations =  1.5

     negative rho (up, down):  1.006E-03 0.000E+00

     total cpu time spent up to now is       23.5 secs

     total energy              =    -448.58700272 Ry
     estimated scf accuracy    <       0.00176934 Ry

     iteration # 24     ecut=   124.00 Ry     beta= 0.70
     Davidson diagonalization with overlap
     ethr =  6.32E-06,  avg # of iterations =  1.0

     negative rho (up, down):  9.532E-04 0.000E+00

     total cpu time spent up to now is       24.4 secs

     total energy              =    -448.58622430 Ry
     estimated scf accuracy    <       0.00189335 Ry

     iteration # 25     ecut=   124.00 Ry     beta= 0.70
     Davidson diagonalization with overlap
     ethr =  6.32E-06,  avg # of iterations =  2.5

     negative rho (up, down):  9.519E-04 0.000E+00

     total cpu time spent up to now is       25.5 secs

     total energy              =    -448.58664002 Ry
     estimated scf accuracy    <       0.00120787 Ry

     iteration # 26     ecut=   124.00 Ry     beta= 0.70
     Davidson diagonalization with overlap
     ethr =  4.31E-06,  avg # of iterations =  1.0

     negative rho (up, down):  9.350E-04 0.000E+00

     total cpu time spent up to now is       26.3 secs

     total energy              =    -448.58685540 Ry
     estimated scf accuracy    <       0.00115498 Ry

     iteration # 27     ecut=   124.00 Ry     beta= 0.70
     Davidson diagonalization with overlap
     ethr =  4.12E-06,  avg # of iterations =  2.0
     Minimization algorithm failed to find Fermi energy: reverting to bisection
     Possible cause: smearing is larger than the electronic band-gap.

     negative rho (up, down):  9.665E-04 0.000E+00

     total cpu time spent up to now is       27.3 secs

     total energy              =    -448.58628947 Ry
     estimated scf accuracy    <       0.00358737 Ry

     iteration # 28     ecut=   124.00 Ry     beta= 0.70
     Davidson diagonalization with overlap
     ethr =  4.12E-06,  avg # of iterations =  2.0

     negative rho (up, down):  9.722E-04 0.000E+00

     total cpu time spent up to now is       28.2 secs

     total energy              =    -448.58652077 Ry
     estimated scf accuracy    <       0.00004730 Ry

     iteration # 29     ecut=   124.00 Ry     beta= 0.70
     Davidson diagonalization with overlap
     ethr =  1.69E-07,  avg # of iterations =  4.7

     negative rho (up, down):  9.640E-04 0.000E+00

     total cpu time spent up to now is       29.4 secs

     total energy              =    -448.58653251 Ry
     estimated scf accuracy    <       0.00024121 Ry

     iteration # 30     ecut=   124.00 Ry     beta= 0.70
     Davidson diagonalization with overlap
     ethr =  1.69E-07,  avg # of iterations =  3.7

     negative rho (up, down):  9.643E-04 0.000E+00

     total cpu time spent up to now is       30.5 secs

     total energy              =    -448.58655214 Ry
     estimated scf accuracy    <       0.00000020 Ry

     iteration # 31     ecut=   124.00 Ry     beta= 0.70
     Davidson diagonalization with overlap
     ethr =  7.22E-10,  avg # of iterations =  5.8

     negative rho (up, down):  9.639E-04 0.000E+00

     total cpu time spent up to now is       31.9 secs

     total energy              =    -448.58655245 Ry
     estimated scf accuracy    <       0.00000110 Ry

     iteration # 32     ecut=   124.00 Ry     beta= 0.70
     Davidson diagonalization with overlap
     ethr =  7.22E-10,  avg # of iterations =  3.7

     negative rho (up, down):  9.638E-04 0.000E+00

     total cpu time spent up to now is       32.9 secs

     total energy              =    -448.58655251 Ry
     estimated scf accuracy    <       0.00000016 Ry

     iteration # 33     ecut=   124.00 Ry     beta= 0.70
     Davidson diagonalization with overlap
     ethr =  5.58E-10,  avg # of iterations =  2.1

     negative rho (up, down):  9.641E-04 0.000E+00

     total cpu time spent up to now is       33.8 secs

     total energy              =    -448.58655247 Ry
     estimated scf accuracy    <       0.00000034 Ry

     iteration # 34     ecut=   124.00 Ry     beta= 0.70
     Davidson diagonalization with overlap
     ethr =  5.58E-10,  avg # of iterations =  2.0

     negative rho (up, down):  9.642E-04 0.000E+00

     total cpu time spent up to now is       34.8 secs

     total energy              =    -448.58655249 Ry
     estimated scf accuracy    <       0.00000001 Ry

     iteration # 35     ecut=   124.00 Ry     beta= 0.70
     Davidson diagonalization with overlap
     ethr =  5.03E-11,  avg # of iterations =  4.2

     negative rho (up, down):  9.641E-04 0.000E+00

     total cpu time spent up to now is       35.9 secs

     total energy              =    -448.58655249 Ry
     estimated scf accuracy    <       0.00000003 Ry

     iteration # 36     ecut=   124.00 Ry     beta= 0.70
     Davidson diagonalization with overlap
     ethr =  5.03E-11,  avg # of iterations =  3.8

     negative rho (up, down):  9.641E-04 0.000E+00

     total cpu time spent up to now is       36.9 secs

     total energy              =    -448.58655249 Ry
     estimated scf accuracy    <       0.00000001 Ry

     iteration # 37     ecut=   124.00 Ry     beta= 0.70
     Davidson diagonalization with overlap
     ethr =  3.67E-11,  avg # of iterations =  1.1

     negative rho (up, down):  9.642E-04 0.000E+00

     total cpu time spent up to now is       37.8 secs

     End of self-consistent calculation

          k = 0.0000 0.0000 0.0000 (  3911 PWs)   bands (ev):

   -69.2103 -39.1519 -35.2713 -35.2713 -35.2713 -15.2461 -15.2461 -15.2461
    10.1528  13.8638  13.8638  16.6568  16.6568  16.6568  18.9982  18.9982
    20.9365  20.9365

          k = 0.0000 0.0000 0.0909 (  3947 PWs)   bands (ev):

   -69.2100 -39.1497 -35.2739 -35.2710 -35.2710 -15.2754 -15.2443 -15.2443
    10.3257  13.9470  13.9536  16.6441  16.6441  16.6947  18.8926  19.0379
    20.6857  20.6857

          k = 0.0000 0.0000 0.1818 (  3964 PWs)   bands (ev):

   -69.2093 -39.1440 -35.2806 -35.2699 -35.2699 -15.3533 -15.2397 -15.2397
    10.8272  14.1866  14.1905  16.6148  16.6148  16.8008  18.5874  19.1278
    20.1021  20.1021

          k = 0.0000 0.0000 0.2727 (  3988 PWs)   bands (ev):

   -69.2083 -39.1366 -35.2894 -35.2686 -35.2686 -15.4541 -15.2335 -15.2335
    11.6057  14.4523  14.5738  16.5899  16.5899  16.9516  18.1202  19.1616
    19.4563  19.4563

          k = 0.0000 0.0000 0.3636 (  4008 PWs)   bands (ev):

   -69.2074 -39.1297 -35.2974 -35.2673 -35.2673 -15.5456 -15.2278 -15.2278
    12.5660  14.5651  15.0485  16.5850  16.5850  17.1052  17.5652  18.9274
    18.9274  18.9715

          k = 0.0000 0.0000 0.4545 (  3992 PWs)   bands (ev):

   -69.2069 -39.1256 -35.3021 -35.2666 -35.2666 -15.5994 -15.2245 -15.2245
    13.5347  14.3044  15.4744  16.5939  16.5939  17.0902  17.2053  18.6282
    18.6282  18.6588

          k = 0.0000 0.0909 0.0909 (  3966 PWs)   bands (ev):

   -69.2097 -39.1475 -35.2748 -35.2724 -35.2706 -15.2765 -15.2702 -15.2425
    10.4951  14.0265  14.0436  16.5616  16.6235  16.7909  18.8774  19.0086
    20.4103  20.4352

          k = 0.0000 0.0909 0.1818 (  3978 PWs)   bands (ev):

   -69.2090 -39.1414 -35.2811 -35.2723 -35.2696 -15.3509 -15.2676 -15.2376
    10.9856  14.2440  14.2906  16.4813  16.5732  16.9084  18.6426  19.0871
    19.8666  19.9000

          k = 0.0000 0.0909 0.2727 (  3995 PWs)   bands (ev):

   -69.2080 -39.1335 -35.2900 -35.2716 -35.2682 -15.4506 -15.2606 -15.2312
    11.7434  14.5128  14.6445  16.4377  16.5167  16.9935  18.2447  19.0577
    19.3653  19.4001

          k = 0.0000 0.0909 0.3636 (  3991 PWs)   bands (ev):

   -69.2071 -39.1262 -35.2982 -35.2708 -35.2670 -15.5411 -15.2541 -15.2253
    12.6707  14.6170  15.0808  16.4435  16.4656  16.9997  17.7899  18.6459
    19.0664  19.2132

          k = 0.0000 0.0909 0.4545 (  3999 PWs)   bands (ev):

   -69.2066 -39.1219 -35.3030 -35.2704 -35.2663 -15.5944 -15.2503 -15.2217
    13.5943  14.3519  15.4692  16.3968  16.4805  16.9451  17.4633  18.3527
    18.9323  19.0197

          k = 0.0000 0.1818 0.1818 (  3972 PWs)   bands (ev):

   -69.2082 -39.1345 -35.2840 -35.2772 -35.2686 -15.3519 -15.3343 -15.2321
    11.4401  14.3900  14.5687  16.3070  16.4778  16.9857  18.6948  19.0458
    19.3496  19.5758

          k = 0.0000 0.1818 0.2727 (  4003 PWs)   bands (ev):

   -69.2073 -39.1253 -35.2920 -35.2794 -35.2673 -15.4413 -15.3326 -15.2250
    12.1275  14.5565  14.9462  16.1858  16.3868  16.9101  18.5208  18.8014
    19.2048  19.3971

          k = 0.0000 0.1818 0.3636 (  3997 PWs)   bands (ev):

   -69.2064 -39.1169 -35.3004 -35.2802 -35.2661 -15.5291 -15.3242 -15.2184
    12.9354  14.5943  15.3322  16.1499  16.3572  16.7002  18.2182  18.4617
    19.3302  19.4170

          k = 0.0000 0.1818 0.4545 (  3990 PWs)   bands (ev):

   -69.2059 -39.1119 -35.3055 -35.2806 -35.2654 -15.5809 -15.3192 -15.2144
    13.6841  14.3630  15.6125  16.2009  16.3901  16.4819  18.0480  18.2166
    19.3519  19.5140

          k = 0.0000 0.2727 0.2727 (  4000 PWs)   bands (ev):

   -69.2063 -39.1146 -35.2961 -35.2880 -35.2661 -15.4378 -15.4172 -15.2168
    12.6688  14.5348  15.3963  15.9775  16.3399  16.6425  18.5788  18.7502
    19.1052  19.5703

          k = 0.0000 0.2727 0.3636 (  3993 PWs)   bands (ev):

   -69.2054 -39.1047 -35.3035 -35.2923 -35.2649 -15.5135 -15.4149 -15.2093
    13.2265  14.4165  15.8407  15.8678  16.3180  16.4951  18.3958  18.7291
    19.2748  19.8464

          k = 0.0000 0.2727 0.4545 (  3996 PWs)   bands (ev):

   -69.2049 -39.0988 -35.3088 -35.2939 -35.2643 -15.5633 -15.4084 -15.2048
    13.6460  14.2282  15.8808  16.0550  16.0845  16.8466  18.1510  18.6844
    19.4869  20.0941

          k = 0.0000 0.3636 0.3636 (  4002 PWs)   bands (ev):

   -69.2046 -39.0934 -35.3073 -35.3025 -35.2639 -15.5042 -15.4923 -15.2009
    13.4198  14.2078  15.6811  15.9708  16.4456  16.8939  18.5222  19.0880
    19.1103  20.2512

          k = 0.0000 0.3636 0.4545 (  3999 PWs)   bands (ev):

   -69.2040 -39.0867 -35.3119 -35.3061 -35.2632 -15.5470 -15.4894 -15.1960
    13.5038  14.0682  15.6293  15.7309  16.8140  17.5390  18.2827  19.1482
    19.3229  20.5544

          k = 0.0000 0.4545 0.4545 (  3998 PWs)   bands (ev):

   -69.2035 -39.0794 -35.3139 -35.3132 -35.2626 -15.5381 -15.5364 -15.1907
    13.3945  13.9723  15.5084  15.5425  17.5106  17.9878  18.6669  18.8520
    19.4119  20.8261

          k = 0.0909 0.0909 0.0909 (  3959 PWs)   bands (ev):

   -69.2094 -39.1451 -35.2744 -35.2744 -35.2711 -15.2769 -15.2684 -15.2684
    10.6615  14.1185  14.1185  16.5391  16.5391  16.8681  18.9294  18.9294
    19.9928  20.6651

          k = 0.0909 0.0909 0.1818 (  3966 PWs)   bands (ev):

   -69.2087 -39.1388 -35.2813 -35.2733 -35.2710 -15.3483 -15.2672 -15.2636
    11.1426  14.3361  14.3554  16.4286  16.4796  16.9503  18.7011  19.0492
    19.5188  20.0788

          k = 0.0909 0.0909 0.2727 (  3992 PWs)   bands (ev):

   -69.2077 -39.1304 -35.2905 -35.2719 -35.2707 -15.4471 -15.2591 -15.2574
    11.8826  14.6168  14.6736  16.3700  16.3987  16.9454  18.3564  19.0005
    19.3236  19.4428

          k = 0.0909 0.0909 0.3636 (  3994 PWs)   bands (ev):

   -69.2068 -39.1228 -35.2988 -35.2707 -35.2704 -15.5368 -15.2516 -15.2516
    12.7810  14.7008  15.0813  16.2989  16.4005  16.8595  17.9712  18.7163
    18.9368  19.4202

          k = 0.0909 0.0909 0.4545 (  4007 PWs)   bands (ev):

   -69.2063 -39.1183 -35.3038 -35.2702 -35.2699 -15.5896 -15.2481 -15.2471
    13.6656  14.4197  15.4383  16.1745  16.5156  16.7699  17.6949  18.4315
    18.6597  19.5237

          k = 0.0909 0.1818 0.1818 (  3984 PWs)   bands (ev):

   -69.2080 -39.1316 -35.2836 -35.2780 -35.2712 -15.3487 -15.3325 -15.2595
    11.5926  14.4938  14.6188  16.2700  16.3702  16.9131  18.7644  19.0172
    19.2358  19.7948

          k = 0.0909 0.1818 0.2727 (  3994 PWs)   bands (ev):

   -69.2070 -39.1222 -35.2919 -35.2795 -35.2705 -15.4380 -15.3301 -15.2518
    12.2705  14.6756  14.9647  16.1421  16.2715  16.7315  18.6109  18.9228
    19.2407  19.4559

          k = 0.0909 0.1818 0.3636 (  4001 PWs)   bands (ev):

   -69.2061 -39.1136 -35.3007 -35.2800 -35.2697 -15.5253 -15.3217 -15.2447
    13.0616  14.7215  15.2859  16.0686  16.2634  16.5479  18.3724  18.5771
    19.1012  19.7199

          k = 0.0909 0.1818 0.4545 (  3993 PWs)   bands (ev):

   -69.2056 -39.1084 -35.3060 -35.2802 -35.2692 -15.5768 -15.3167 -15.2405
    13.7875  14.4740  15.5175  16.0018  16.3647  16.4909  18.1991  18.2872
    18.8991  20.1084

          k = 0.0909 0.2727 0.2727 (  3989 PWs)   bands (ev):

   -69.2061 -39.1114 -35.2957 -35.2883 -35.2695 -15.4340 -15.4153 -15.2435
    12.8158  14.6587  15.4058  15.9390  16.2101  16.4306  18.6963  18.9063
    19.0873  19.7047

          k = 0.0909 0.2727 0.3636 (  3985 PWs)   bands (ev):

   -69.2052 -39.1015 -35.3033 -35.2922 -35.2686 -15.5103 -15.4125 -15.2357
    13.3703  14.5419  15.7742  15.8302  16.2030  16.3600  18.4780  18.8193
    19.1582  20.1172

          k = 0.0909 0.2727 0.4545 (  4006 PWs)   bands (ev):

   -69.2046 -39.0955 -35.3089 -35.2935 -35.2680 -15.5600 -15.4061 -15.2311
    13.7756  14.3545  15.7972  15.8477  16.1550  16.7541  18.1884  18.7887
    19.0873  20.6002

          k = 0.0909 0.3636 0.3636 (  3992 PWs)   bands (ev):

   -69.2043 -39.0903 -35.3068 -35.3024 -35.2675 -15.5011 -15.4904 -15.2274
    13.5656  14.3325  15.6506  15.8817  16.4032  16.7209  18.4860  18.9868
    19.1887  20.5636

          k = 0.0909 0.3636 0.4545 (  4002 PWs)   bands (ev):

   -69.2038 -39.0836 -35.3116 -35.3057 -35.2669 -15.5446 -15.4873 -15.2224
    13.6401  14.1966  15.5970  15.6797  16.7391  17.3611  18.2404  18.9494
    19.2815  20.7958

          k = 0.0909 0.4545 0.4545 (  3993 PWs)   bands (ev):

   -69.2033 -39.0765 -35.3134 -35.3128 -35.2662 -15.5360 -15.5345 -15.2173
    13.5314  14.1009  15.4860  15.5157  17.4523  17.8446  18.4160  18.5135
    19.4899  21.0193

          k = 0.1818 0.1818 0.1818 (  3989 PWs)   bands (ev):

   -69.2072 -39.1239 -35.2825 -35.2825 -35.2757 -15.3447 -15.3275 -15.3275
    12.0266  14.7610  14.7610  16.1712  16.1712  16.6504  18.9328  18.9328
    19.2929  20.0374

          k = 0.1818 0.1818 0.2727 (  3992 PWs)   bands (ev):

   -69.2063 -39.1139 -35.2921 -35.2810 -35.2777 -15.4292 -15.3259 -15.3210
    12.6697  14.9702  15.0333  16.0341  16.0388  16.3368  18.8049  19.0078
    19.4273  19.5988

          k = 0.1818 0.1818 0.3636 (  3994 PWs)   bands (ev):

   -69.2054 -39.1046 -35.3016 -35.2796 -35.2790 -15.5151 -15.3151 -15.3150
    13.3929  15.0074  15.2036  15.8991  16.0682  16.2649  18.6704  18.7433
    18.9523  20.1600

          k = 0.1818 0.1818 0.4545 (  3986 PWs)   bands (ev):

   -69.2049 -39.0991 -35.3073 -35.2797 -35.2788 -15.5658 -15.3114 -15.3085
    14.0172  14.6821  15.3921  15.7788  16.1845  16.4450  18.3322  18.5953
    18.6806  20.5298

          k = 0.1818 0.2727 0.2727 (  3994 PWs)   bands (ev):

   -69.2053 -39.1029 -35.2944 -35.2893 -35.2787 -15.4238 -15.4102 -15.3144
    13.2274  14.9964  15.4273  15.8397  15.9189  15.9976  18.8252  19.0096
    19.3284  20.0777

          k = 0.1818 0.2727 0.3636 (  3988 PWs)   bands (ev):

   -69.2045 -39.0928 -35.3031 -35.2918 -35.2783 -15.5017 -15.4060 -15.3061
    13.7701  14.8706  15.5749  15.7253  15.9737  16.0870  18.5905  18.8382
    19.2207  20.3803

          k = 0.1818 0.2727 0.4545 (  3991 PWs)   bands (ev):

   -69.2039 -39.0868 -35.3091 -35.2925 -35.2779 -15.5513 -15.4000 -15.3011
    14.1253  14.6660  15.5488  15.6706  16.0602  16.5356  18.2319  18.6757
    19.1297  20.6014

          k = 0.1818 0.3636 0.3636 (  3990 PWs)   bands (ev):

   -69.2036 -39.0819 -35.3055 -35.3022 -35.2773 -15.4929 -15.4852 -15.2979
    13.9820  14.6576  15.5747  15.6896  16.2719  16.2956  18.4622  18.6969
    19.4850  20.5435

          k = 0.1818 0.3636 0.4545 (  3993 PWs)   bands (ev):

   -69.2031 -39.0754 -35.3108 -35.3045 -35.2767 -15.5379 -15.4817 -15.2930
    14.0272  14.5323  15.5200  15.5675  16.4915  16.9250  18.1794  18.5402
    19.5616  20.7853

          k = 0.1818 0.4545 0.4545 (  4002 PWs)   bands (ev):

   -69.2026 -39.0686 -35.3120 -35.3116 -35.2760 -15.5305 -15.5294 -15.2882
    13.9234  14.4434  15.4329  15.4545  17.1746  17.2811  18.0690  18.2503
    19.7506  21.0765

          k = 0.2727 0.2727 0.2727 (  3998 PWs)   bands (ev):

   -69.2044 -39.0917 -35.2928 -35.2928 -35.2886 -15.4134 -15.4035 -15.4035
    13.7990  15.4441  15.4441  15.5182  15.7193  15.7193  18.8337  18.8337
    19.7983  19.7983

          k = 0.2727 0.2727 0.3636 (  3992 PWs)   bands (ev):

   -69.2035 -39.0814 -35.3030 -35.2913 -35.2908 -15.4906 -15.3975 -15.3973
    14.2965  15.1356  15.4426  15.6207  15.7209  15.9354  18.5785  18.6239
    19.6455  20.2947

          k = 0.2727 0.2727 0.4545 (  3990 PWs)   bands (ev):

   -69.2030 -39.0752 -35.3095 -35.2915 -35.2904 -15.5398 -15.3936 -15.3902
    14.5097  14.9115  15.4302  15.5701  15.9004  16.3710  18.1751  18.4970
    19.5914  20.6352

          k = 0.2727 0.3636 0.3636 (  3988 PWs)   bands (ev):

   -69.2027 -39.0709 -35.3037 -35.3021 -35.2902 -15.4822 -15.4785 -15.3893
    14.5957  15.0027  15.4917  15.5872  15.8170  16.0595  18.4143  18.4173
    19.9496  20.4946

          k = 0.2727 0.3636 0.4545 (  3992 PWs)   bands (ev):

   -69.2021 -39.0646 -35.3099 -35.3030 -35.2896 -15.5292 -15.4743 -15.3844
    14.5794  14.9171  15.4521  15.5076  16.1032  16.4659  18.0772  18.3312
    20.0120  20.8206

          k = 0.2727 0.4545 0.4545 (  4000 PWs)   bands (ev):

   -69.2016 -39.0583 -35.3102 -35.3100 -35.2888 -15.5232 -15.5227 -15.3800
    14.5067  14.8769  15.3854  15.4135  16.6254  16.6526  17.9060  18.1706
    20.1897  21.1136

          k = 0.3636 0.3636 0.3636 (  3999 PWs)   bands (ev):

   -69.2018 -39.0607 -35.3021 -35.3021 -35.3018 -15.4725 -15.4722 -15.4722
    14.9948  15.3300  15.4470  15.4470  15.8145  15.8145  18.2411  18.2411
    20.5002  20.5002

          k = 0.3636 0.3636 0.4545 (  4008 PWs)   bands (ev):

   -69.2013 -39.0547 -35.3090 -35.3018 -35.3011 -15.5212 -15.4685 -15.4665
    14.9931  15.1653  15.4767  15.6074  15.7984  16.1604  17.9824  18.1639
    20.5129  20.9126

          k = 0.3636 0.4545 0.4545 (  3994 PWs)   bands (ev):

   -69.2008 -39.0488 -35.3085 -35.3085 -35.3006 -15.5165 -15.5165 -15.4635
    15.1008  15.2495  15.3888  15.4963  16.0924  16.1437  17.8651  18.0301
    20.7353  21.1430

          k = 0.4545 0.4545 0.4545 (  3972 PWs)   bands (ev):

   -69.2003 -39.0431 -35.3076 -35.3075 -35.3075 -15.5128 -15.5128 -15.5124
    15.3317  15.4752  15.4752  15.7775  15.7775  15.8004  17.8552  17.8552
    21.1597  21.1597

     the Fermi energy is    17.5936 ev

!    total energy              =    -448.58655249 Ry
     estimated scf accuracy    <          7.2E-10 Ry
     smearing contrib. (-TS)   =       0.00005038 Ry
     internal energy E=F+TS    =    -448.58660287 Ry

     The total energy is F=E-TS. E is the sum of the following terms:
     one-electron contribution =    -151.34228263 Ry
     hartree contribution      =      91.61721392 Ry
     xc contribution           =     -52.88698661 Ry
     ewald contribution        =    -259.82070277 Ry
     one-center paw contrib.   =     -76.15384478 Ry

     convergence has been achieved in  37 iterations

     negative rho (up, down):  9.642E-04 0.000E+00

     Forces acting on atoms (cartesian axes, Ry/au):

     atom    1 type  1   force =     0.00000000    0.00000000    0.00000000
     atom    2 type  2   force =     0.00000000    0.00000000    0.00000000

     Total force =     0.000000     Total SCF correction =     0.000000


     Computing stress (Cartesian axis) and pressure


     negative rho (up, down):  9.642E-04 0.000E+00
          total   stress  (Ry/bohr**3)                   (kbar)     P=       31.49
   0.00021405   0.00000000   0.00000000           31.49        0.00        0.00
   0.00000000   0.00021405   0.00000000            0.00       31.49        0.00
   0.00000000   0.00000000   0.00021405            0.00        0.00       31.49


     BFGS Geometry Optimization
     Energy error            =      6.5E-04 Ry
     Gradient error          =      0.0E+00 Ry/Bohr
     Cell gradient error     =      3.3E+01 kbar

     number of scf cycles    =   1
     number of bfgs steps    =   0

     enthalpy           new  =    -448.5885157511 Ry

     new trust radius        =       0.0147558432 bohr
     new conv_thr            =       0.0000000100 Ry

     new unit-cell volume =    174.17195 a.u.^3 (    25.80962 Ang^3 )
     density =      6.67262 g/cm^3

CELL_PARAMETERS (alat=  5.55330037)
   1.005637769   0.000000000   0.000000000
   0.000000000   1.005637769   0.000000000
   0.000000000   0.000000000   1.005637769

ATOMIC_POSITIONS (crystal)
Fe               0.5000000000        0.5000000000        0.5000000000
Ti               0.0000000000        0.0000000000        0.0000000000



     Writing config-only to output data dir ./TiFe.save/ :
     XML data file
     NEW-OLD atomic charge density approx. for the potential
     New effective cutoffs (rho, wfc): 1716.46  122.61

     Check: negative core charge=   -0.000001

     negative rho (up, down):  9.822E-04 0.000E+00

     total cpu time spent up to now is       39.8 secs

     per-process dynamical memory:   153.2 Mb

     Self-consistent Calculation

     iteration #  1     ecut=   124.00 Ry     beta= 0.70
     Davidson diagonalization with overlap
     ethr =  1.00E-06,  avg # of iterations =  5.3

     negative rho (up, down):  9.708E-04 0.000E+00

     total cpu time spent up to now is       41.2 secs

     total energy              =    -448.58665471 Ry
     estimated scf accuracy    <       0.00007744 Ry

     iteration #  2     ecut=   124.00 Ry     beta= 0.70
     Davidson diagonalization with overlap
     ethr =  2.77E-07,  avg # of iterations =  4.2

     negative rho (up, down):  9.660E-04 0.000E+00

     total cpu time spent up to now is       42.4 secs

     total energy              =    -448.58644592 Ry
     estimated scf accuracy    <       0.00630945 Ry

     iteration #  3     ecut=   124.00 Ry     beta= 0.70
     Davidson diagonalization with overlap
     ethr =  2.77E-07,  avg # of iterations =  4.8

     negative rho (up, down):  9.681E-04 0.000E+00

     total cpu time spent up to now is       43.5 secs

     total energy              =    -448.58682956 Ry
     estimated scf accuracy    <       0.00007151 Ry

     iteration #  4     ecut=   124.00 Ry     beta= 0.70
     Davidson diagonalization with overlap
     ethr =  2.55E-07,  avg # of iterations =  1.3

     negative rho (up, down):  9.679E-04 0.000E+00

     total cpu time spent up to now is       44.4 secs

     total energy              =    -448.58683604 Ry
     estimated scf accuracy    <       0.00000721 Ry

     iteration #  5     ecut=   124.00 Ry     beta= 0.70
     Davidson diagonalization with overlap
     ethr =  2.57E-08,  avg # of iterations =  3.8

     negative rho (up, down):  9.675E-04 0.000E+00

     total cpu time spent up to now is       45.4 secs

     total energy              =    -448.58683760 Ry
     estimated scf accuracy    <       0.00000025 Ry

     iteration #  6     ecut=   124.00 Ry     beta= 0.70
     Davidson diagonalization with overlap
     ethr =  8.80E-10,  avg # of iterations =  5.0

     negative rho (up, down):  9.673E-04 0.000E+00

     total cpu time spent up to now is       46.7 secs

     total energy              =    -448.58683779 Ry
     estimated scf accuracy    <       0.00000017 Ry

     iteration #  7     ecut=   124.00 Ry     beta= 0.70
     Davidson diagonalization with overlap
     ethr =  6.08E-10,  avg # of iterations =  2.0

     negative rho (up, down):  9.674E-04 0.000E+00

     total cpu time spent up to now is       47.6 secs

     total energy              =    -448.58683778 Ry
     estimated scf accuracy    <       0.00000006 Ry

     iteration #  8     ecut=   124.00 Ry     beta= 0.70
     Davidson diagonalization with overlap
     ethr =  2.03E-10,  avg # of iterations =  1.9

     negative rho (up, down):  9.674E-04 0.000E+00

     total cpu time spent up to now is       48.6 secs

     End of self-consistent calculation

          k = 0.0000 0.0000 0.0000 (  3911 PWs)   bands (ev):

   -69.5414 -39.5287 -35.6018 -35.6018 -35.6018 -15.6276 -15.6276 -15.6276
     9.8641  13.6104  13.6104  16.3355  16.3355  16.3355  18.6294  18.6294
    20.5229  20.5229

          k = 0.0000 0.0000 0.0904 (  3947 PWs)   bands (ev):

   -69.5412 -39.5266 -35.6042 -35.6014 -35.6014 -15.6551 -15.6259 -15.6259
    10.0343  13.6921  13.6969  16.3229  16.3229  16.3725  18.5268  18.6678
    20.2786  20.2786

          k = 0.0000 0.0000 0.1808 (  3964 PWs)   bands (ev):

   -69.5405 -39.5212 -35.6107 -35.6005 -35.6005 -15.7285 -15.6214 -15.6214
    10.5285  13.9205  13.9309  16.2940  16.2940  16.4763  18.2303  18.7539
    19.7093  19.7093

          k = 0.0000 0.0000 0.2712 (  3988 PWs)   bands (ev):

   -69.5396 -39.5141 -35.6191 -35.5992 -35.5992 -15.8235 -15.6155 -15.6155
    11.2970  14.1724  14.3067  16.2690  16.2690  16.6236  17.7760  18.7826
    19.0788  19.0788

          k = 0.0000 0.0000 0.3616 (  4008 PWs)   bands (ev):

   -69.5388 -39.5075 -35.6268 -35.5981 -35.5981 -15.9097 -15.6101 -15.6101
    12.2482  14.2686  14.7715  16.2633  16.2633  16.7736  17.2359  18.5626
    18.5626  18.5892

          k = 0.0000 0.0000 0.4520 (  3992 PWs)   bands (ev):

   -69.5383 -39.5036 -35.6313 -35.5974 -35.5974 -15.9605 -15.6069 -15.6069
    13.2135  13.9917  15.1877  16.2712  16.2712  16.7736  16.8713  18.2707
    18.2707  18.2785

          k = 0.0000 0.0904 0.0904 (  3966 PWs)   bands (ev):

   -69.5409 -39.5245 -35.6050 -35.6029 -35.6011 -15.6561 -15.6503 -15.6242
    10.2011  13.7692  13.7845  16.2428  16.3027  16.4660  18.5120  18.6393
    20.0103  20.0341

          k = 0.0000 0.0904 0.1808 (  3978 PWs)   bands (ev):

   -69.5402 -39.5187 -35.6111 -35.6028 -35.6002 -15.7262 -15.6477 -15.6195
    10.6849  13.9805  14.0240  16.1644  16.2532  16.5804  18.2838  18.7145
    19.4789  19.5126

          k = 0.0000 0.0904 0.2712 (  3995 PWs)   bands (ev):

   -69.5394 -39.5112 -35.6196 -35.6021 -35.5989 -15.8202 -15.6411 -15.6133
    11.4337  14.2343  14.3723  16.1215  16.1973  16.6634  17.8970  18.6823
    18.9885  19.0246

          k = 0.0000 0.0904 0.3616 (  3991 PWs)   bands (ev):

   -69.5385 -39.5043 -35.6274 -35.6014 -35.5978 -15.9055 -15.6350 -15.6077
    12.3531  14.3210  14.8011  16.1262  16.1469  16.6700  17.4540  18.2798
    18.6983  18.8331

          k = 0.0000 0.0904 0.4520 (  3999 PWs)   bands (ev):

   -69.5381 -39.5002 -35.6321 -35.6010 -35.5971 -15.9558 -15.6313 -15.6043
    13.2747  14.0405  15.1815  16.0801  16.1612  16.6178  17.1347  17.9910
    18.5669  18.6409

          k = 0.0000 0.1808 0.1808 (  3972 PWs)   bands (ev):

   -69.5396 -39.5122 -35.6136 -35.6076 -35.5992 -15.7270 -15.7109 -15.6143
    11.1341  14.1228  14.2936  15.9946  16.1592  16.6551  18.3341  18.6746
    18.9729  19.1966

          k = 0.0000 0.1808 0.2712 (  4003 PWs)   bands (ev):

   -69.5387 -39.5036 -35.6212 -35.6096 -35.5981 -15.8115 -15.7090 -15.6075
    11.8156  14.2814  14.6605  15.8763  16.0687  16.5813  18.1657  18.4336
    18.8294  19.0219

          k = 0.0000 0.1808 0.3616 (  3997 PWs)   bands (ev):

   -69.5379 -39.4957 -35.6293 -35.6102 -35.5970 -15.8944 -15.7012 -15.6012
    12.6209  14.3067  15.0380  15.8408  16.0376  16.3773  17.8708  18.0998
    18.9478  19.0404

          k = 0.0000 0.1808 0.4520 (  3990 PWs)   bands (ev):

   -69.5374 -39.4910 -35.6342 -35.6105 -35.5963 -15.9433 -15.6964 -15.5975
    13.3742  14.0612  15.3144  15.8895  16.0665  16.1655  17.7039  17.8589
    18.9645  19.1342

          k = 0.0000 0.2712 0.2712 (  4000 PWs)   bands (ev):

   -69.5378 -39.4936 -35.6249 -35.6177 -35.5969 -15.8080 -15.7892 -15.5998
    12.3576  14.2577  15.0977  15.6731  16.0190  16.3205  18.2152  18.3901
    18.7302  19.1904

          k = 0.0000 0.2712 0.3616 (  3993 PWs)   bands (ev):

   -69.5370 -39.4844 -35.6320 -35.6215 -35.5959 -15.8799 -15.7869 -15.5927
    12.9229  14.1349  15.5305  15.5659  16.0044  16.1646  18.0347  18.3685
    18.8935  19.4591

          k = 0.0000 0.2712 0.4520 (  3996 PWs)   bands (ev):

   -69.5365 -39.4790 -35.6371 -35.6229 -35.5953 -15.9269 -15.7807 -15.5885
    13.3555  13.9384  15.5780  15.7485  15.7677  16.5034  17.7927  18.3261
    19.0955  19.7002

          k = 0.0000 0.3616 0.3616 (  4002 PWs)   bands (ev):

   -69.5362 -39.4740 -35.6353 -35.6311 -35.5949 -15.8711 -15.8602 -15.5848
    13.1331  13.9275  15.3836  15.6658  16.1205  16.5477  18.1550  18.7194
    18.7302  19.8536

          k = 0.0000 0.3616 0.4520 (  3999 PWs)   bands (ev):

   -69.5357 -39.4678 -35.6397 -35.6343 -35.5943 -15.9118 -15.8574 -15.5802
    13.2303  13.7860  15.3329  15.4319  16.4789  17.1792  17.9182  18.7753
    18.9361  20.1492

          k = 0.0000 0.4520 0.4520 (  3998 PWs)   bands (ev):

   -69.5352 -39.4612 -35.6415 -35.6409 -35.5937 -15.9035 -15.9020 -15.5752
    13.1294  13.6939  15.2149  15.2480  17.1644  17.6255  18.2870  18.4676
    19.0341  20.4140

          k = 0.0904 0.0904 0.0904 (  3959 PWs)   bands (ev):

   -69.5407 -39.5222 -35.6046 -35.6046 -35.6018 -15.6564 -15.6486 -15.6486
    10.3652  13.8579  13.8579  16.2207  16.2207  16.5408  18.5624  18.5624
    19.6028  20.2584

          k = 0.0904 0.0904 0.1808 (  3966 PWs)   bands (ev):

   -69.5400 -39.5162 -35.6112 -35.6037 -35.6017 -15.7238 -15.6473 -15.6440
    10.8398  14.0715  14.0858  16.1129  16.1623  16.6204  18.3406  18.6777
    19.1399  19.6863

          k = 0.0904 0.0904 0.2712 (  3992 PWs)   bands (ev):

   -69.5391 -39.5084 -35.6200 -35.6024 -35.6013 -15.8169 -15.6397 -15.6380
    11.5715  14.3339  14.4024  16.0551  16.0829  16.6157  18.0056  18.6274
    18.9477  19.0650

          k = 0.0904 0.0904 0.3616 (  3994 PWs)   bands (ev):

   -69.5383 -39.5011 -35.6280 -35.6012 -35.6010 -15.9015 -15.6326 -15.6325
    12.4632  14.4027  14.8017  15.9851  16.0837  16.5328  17.6306  18.3455
    18.5708  19.0388

          k = 0.0904 0.0904 0.4520 (  4007 PWs)   bands (ev):

   -69.5378 -39.4968 -35.6328 -35.6008 -35.6005 -15.9514 -15.6292 -15.6284
    13.3468  14.1082  15.1513  15.8634  16.1944  16.4462  17.3610  18.0629
    18.3003  19.1378

          k = 0.0904 0.1808 0.1808 (  3984 PWs)   bands (ev):

   -69.5393 -39.5095 -35.6132 -35.6082 -35.6018 -15.7239 -15.7091 -15.6401
    11.2846  14.2236  14.3427  15.9583  16.0550  16.5835  18.4016  18.6467
    18.8627  19.4091

          k = 0.0904 0.1808 0.2712 (  3994 PWs)   bands (ev):

   -69.5384 -39.5007 -35.6212 -35.6096 -35.6011 -15.8084 -15.7067 -15.6328
    11.9568  14.3978  14.6784  15.8334  15.9571  16.4067  18.2529  18.5517
    18.8655  19.0781

          k = 0.0904 0.1808 0.3616 (  4001 PWs)   bands (ev):

   -69.5376 -39.4926 -35.6296 -35.6100 -35.6003 -15.8908 -15.6988 -15.6261
    12.7457  14.4305  14.9934  15.7606  15.9474  16.2283  18.0218  18.2113
    18.7271  19.3330

          k = 0.0904 0.1808 0.4520 (  3993 PWs)   bands (ev):

   -69.5371 -39.4878 -35.6346 -35.6101 -35.5998 -15.9395 -15.6940 -15.6221
    13.4763  14.1698  15.2237  15.6928  16.0477  16.1688  17.8507  17.9277
    18.5286  19.7101

          k = 0.0904 0.2712 0.2712 (  3989 PWs)   bands (ev):

   -69.5376 -39.4907 -35.6245 -35.6180 -35.6002 -15.8045 -15.7874 -15.6249
    12.5022  14.3787  15.1071  15.6351  15.8936  16.1133  18.3298  18.5431
    18.7124  19.3200

          k = 0.0904 0.2712 0.3616 (  3985 PWs)   bands (ev):

   -69.5368 -39.4814 -35.6318 -35.6214 -35.5993 -15.8768 -15.7846 -15.6176
    13.0643  14.2574  15.4681  15.5269  15.8905  16.0344  18.1148  18.4565
    18.7811  19.7215

          k = 0.0904 0.2712 0.4520 (  4006 PWs)   bands (ev):

   -69.5363 -39.4759 -35.6371 -35.6225 -35.5987 -15.9238 -15.7786 -15.6133
    13.4830  14.0622  15.4963  15.5426  15.8378  16.4149  17.8288  18.4280
    18.7095  20.1931

          k = 0.0904 0.3616 0.3616 (  3992 PWs)   bands (ev):

   -69.5360 -39.4711 -35.6348 -35.6310 -35.5983 -15.8682 -15.8583 -15.6098
    13.2765  14.0493  15.3536  15.5783  16.0786  16.3793  18.1215  18.6091
    18.8181  20.1572

          k = 0.0904 0.3616 0.4520 (  4002 PWs)   bands (ev):

   -69.5355 -39.4650 -35.6395 -35.6339 -35.5977 -15.9094 -15.8554 -15.6051
    13.3644  13.9117  15.3008  15.3814  16.4045  17.0053  17.8783  18.5713
    18.9083  20.3860

          k = 0.0904 0.4520 0.4520 (  3993 PWs)   bands (ev):

   -69.5350 -39.4585 -35.6410 -35.6405 -35.5971 -15.9015 -15.9001 -15.6003
    13.2640  13.8196  15.1926  15.2213  17.1059  17.4813  18.0477  18.1391
    19.1109  20.6051

          k = 0.1808 0.1808 0.1808 (  3989 PWs)   bands (ev):

   -69.5387 -39.5024 -35.6122 -35.6122 -35.6062 -15.7202 -15.7043 -15.7043
    11.7136  14.4823  14.4823  15.8615  15.8615  16.3264  18.5648  18.5648
    18.9171  19.6457

          k = 0.1808 0.1808 0.2712 (  3992 PWs)   bands (ev):

   -69.5378 -39.4930 -35.6213 -35.6108 -35.6080 -15.8001 -15.7027 -15.6981
    12.3518  14.6876  14.7425  15.7269  15.7312  16.0207  18.4407  18.6340
    19.0500  19.2148

          k = 0.1808 0.1808 0.3616 (  3994 PWs)   bands (ev):

   -69.5370 -39.4843 -35.6304 -35.6096 -35.6091 -15.8812 -15.6926 -15.6923
    13.0749  14.7066  14.9170  15.5933  15.7580  15.9510  18.3104  18.3707
    18.5860  19.7620

          k = 0.1808 0.1808 0.4520 (  3986 PWs)   bands (ev):

   -69.5365 -39.4792 -35.6358 -35.6096 -35.6088 -15.9291 -15.6889 -15.6865
    13.7063  14.3760  15.1034  15.4733  15.8695  16.1225  17.9660  18.2388
    18.3196  20.1264

          k = 0.1808 0.2712 0.2712 (  3994 PWs)   bands (ev):

   -69.5369 -39.4828 -35.6233 -35.6188 -35.6088 -15.7950 -15.7824 -15.6919
    12.9075  14.7086  15.1286  15.5371  15.6126  15.6887  18.4565  18.6356
    18.9554  19.6812

          k = 0.1808 0.2712 0.3616 (  3988 PWs)   bands (ev):

   -69.5361 -39.4734 -35.6315 -35.6210 -35.6084 -15.8688 -15.7784 -15.6841
    13.4573  14.5791  15.2757  15.4233  15.6607  15.7735  18.2247  18.4671
    18.8504  19.9817

          k = 0.1808 0.2712 0.4520 (  3991 PWs)   bands (ev):

   -69.5356 -39.4678 -35.6373 -35.6215 -35.6080 -15.9156 -15.7728 -15.6793
    13.8275  14.3685  15.2540  15.3672  15.7419  16.2054  17.8700  18.3096
    18.7621  20.1967

          k = 0.1808 0.3616 0.3616 (  3990 PWs)   bands (ev):

   -69.5353 -39.4634 -35.6336 -35.6308 -35.6075 -15.8605 -15.8534 -15.6763
    13.6863  14.3674  15.2783  15.3892  15.9495  15.9661  18.0996  18.3262
    19.1081  20.1415

          k = 0.1808 0.3616 0.4520 (  3993 PWs)   bands (ev):

   -69.5348 -39.4574 -35.6387 -35.6328 -35.6069 -15.9031 -15.8501 -15.6717
    13.7456  14.2407  15.2245  15.2699  16.1597  16.5816  17.8192  18.1744
    19.1826  20.3771

          k = 0.1808 0.4520 0.4520 (  4002 PWs)   bands (ev):

   -69.5344 -39.4511 -35.6397 -35.6393 -35.6062 -15.8962 -15.8952 -15.6671
    13.6495  14.1548  15.1393  15.1600  16.8299  16.9287  17.7103  17.8900
    19.3662  20.6618

          k = 0.2712 0.2712 0.2712 (  3998 PWs)   bands (ev):

   -69.5360 -39.4724 -35.6219 -35.6219 -35.6182 -15.7853 -15.7760 -15.7760
    13.4733  15.1465  15.1465  15.2194  15.4171  15.4171  18.4633  18.4633
    19.4147  19.4147

          k = 0.2712 0.2712 0.3616 (  3992 PWs)   bands (ev):

   -69.5352 -39.4629 -35.6314 -35.6205 -35.6200 -15.8583 -15.7704 -15.7700
    13.9780  14.8401  15.1479  15.3170  15.4147  15.6244  18.2112  18.2588
    19.2658  19.8988

          k = 0.2712 0.2712 0.4520 (  3990 PWs)   bands (ev):

   -69.5348 -39.4572 -35.6375 -35.6206 -35.6197 -15.9048 -15.7665 -15.7636
    14.2105  14.6133  15.1385  15.2644  15.5826  16.0463  17.8145  18.1352
    19.2131  20.2302

          k = 0.2712 0.3616 0.3616 (  3988 PWs)   bands (ev):

   -69.5344 -39.4532 -35.6320 -35.6306 -35.6194 -15.8504 -15.8469 -15.7626
    14.2916  14.7064  15.1956  15.2840  15.5028  15.7417  18.0527  18.0539
    19.5623  20.0943

          k = 0.2712 0.3616 0.4520 (  3992 PWs)   bands (ev):

   -69.5340 -39.4474 -35.6378 -35.6313 -35.6189 -15.8948 -15.8430 -15.7580
    14.2907  14.6198  15.1566  15.2062  15.7782  16.1364  17.7201  17.9715
    19.6231  20.4119

          k = 0.2712 0.4520 0.4520 (  4000 PWs)   bands (ev):

   -69.5335 -39.4415 -35.6381 -35.6379 -35.6182 -15.8892 -15.8887 -15.7538
    14.2235  14.5796  15.0906  15.1169  16.2897  16.3186  17.5538  17.8128
    19.7958  20.6981

          k = 0.3616 0.3616 0.3616 (  3999 PWs)   bands (ev):

   -69.5337 -39.4438 -35.6305 -35.6305 -35.6303 -15.8413 -15.8409 -15.8409
    14.7054  15.0040  15.1494  15.1494  15.5034  15.5034  17.8825  17.8825
    20.0999  20.0999

          k = 0.3616 0.3616 0.4520 (  4008 PWs)   bands (ev):

   -69.5332 -39.4382 -35.6370 -35.6303 -35.6297 -15.8872 -15.8373 -15.8356
    14.7037  14.8662  15.1746  15.3042  15.4763  15.8404  17.6284  17.8074
    20.1123  20.5018

          k = 0.3616 0.4520 0.4520 (  3994 PWs)   bands (ev):

   -69.5327 -39.4327 -35.6365 -35.6365 -35.6291 -15.8827 -15.8827 -15.8326
    14.8091  14.9474  15.0905  15.1918  15.7713  15.8235  17.5142  17.6757
    20.3289  20.7266

          k = 0.4520 0.4520 0.4520 (  3972 PWs)   bands (ev):

   -69.5323 -39.4274 -35.6357 -35.6356 -35.6356 -15.8791 -15.8791 -15.8788
    15.0322  15.1694  15.1694  15.4709  15.4709  15.4869  17.5046  17.5046
    20.7429  20.7429

     the Fermi energy is    17.2397 ev

!    total energy              =    -448.58683778 Ry
     estimated scf accuracy    <          8.6E-09 Ry
     smearing contrib. (-TS)   =       0.00006555 Ry
     internal energy E=F+TS    =    -448.58690333 Ry

     The total energy is F=E-TS. E is the sum of the following terms:
     one-electron contribution =    -153.59147943 Ry
     hartree contribution      =      92.37996986 Ry
     xc contribution           =     -52.85782026 Ry
     ewald contribution        =    -258.36410558 Ry
     one-center paw contrib.   =     -76.15346792 Ry

     convergence has been achieved in   8 iterations

     negative rho (up, down):  9.674E-04 0.000E+00

     Forces acting on atoms (cartesian axes, Ry/au):

     atom    1 type  1   force =     0.00000000    0.00000000    0.00000000
     atom    2 type  2   force =     0.00000000    0.00000000    0.00000000

     Total force =     0.000000     Total SCF correction =     0.000000


     Computing stress (Cartesian axis) and pressure


     negative rho (up, down):  9.674E-04 0.000E+00
          total   stress  (Ry/bohr**3)                   (kbar)     P=       -2.31
  -0.00001568   0.00000000   0.00000000           -2.31        0.00        0.00
   0.00000000  -0.00001568   0.00000000            0.00       -2.31        0.00
   0.00000000   0.00000000  -0.00001568            0.00        0.00       -2.31

     Energy error            =      3.2E-04 Ry
     Gradient error          =      0.0E+00 Ry/Bohr
     Cell gradient error     =      6.2E-01 kbar

     number of scf cycles    =   2
     number of bfgs steps    =   1

     enthalpy           old  =    -448.5885157511 Ry
     enthalpy           new  =    -448.5888344314 Ry

     CASE: enthalpy          _new < enthalpy          _old

     new trust radius        =       0.0002744458 bohr
     new conv_thr            =            1.0E-10 Ry

     new unit-cell volume =    174.11763 a.u.^3 (    25.80157 Ang^3 )
     density =      6.67470 g/cm^3

CELL_PARAMETERS (alat=  5.55330037)
   1.005533206   0.000000000   0.000000000
   0.000000000   1.005533206   0.000000000
   0.000000000   0.000000000   1.005533206

ATOMIC_POSITIONS (crystal)
Fe               0.5000000000        0.5000000000        0.5000000000
Ti               0.0000000000        0.0000000000        0.0000000000



     Writing config-only to output data dir ./TiFe.save/ :
     XML data file
     NEW-OLD atomic charge density approx. for the potential
     New effective cutoffs (rho, wfc): 1716.82  122.63

     Check: negative core charge=   -0.000001

     negative rho (up, down):  9.671E-04 0.000E+00

     total cpu time spent up to now is       50.5 secs

     per-process dynamical memory:   153.2 Mb

     Self-consistent Calculation

     iteration #  1     ecut=   124.00 Ry     beta= 0.70
     Davidson diagonalization with overlap
     ethr =  1.00E-06,  avg # of iterations =  2.0

     Threshold (ethr) on eigenvalues was too large:
     Diagonalizing with lowered threshold

     Davidson diagonalization with overlap
     ethr =  7.27E-09,  avg # of iterations =  1.0

     negative rho (up, down):  9.666E-04 0.000E+00

     total cpu time spent up to now is       52.3 secs

     total energy              =    -448.58683668 Ry
     estimated scf accuracy    <       0.00000224 Ry

     iteration #  2     ecut=   124.00 Ry     beta= 0.70
     Davidson diagonalization with overlap
     ethr =  7.99E-09,  avg # of iterations =  4.8

     negative rho (up, down):  9.673E-04 0.000E+00

     total cpu time spent up to now is       53.5 secs

     total energy              =    -448.58682428 Ry
     estimated scf accuracy    <       0.00027041 Ry

     iteration #  3     ecut=   124.00 Ry     beta= 0.70
     Davidson diagonalization with overlap
     ethr =  7.99E-09,  avg # of iterations =  4.8

     negative rho (up, down):  9.673E-04 0.000E+00

     total cpu time spent up to now is       54.7 secs

     total energy              =    -448.58683848 Ry
     estimated scf accuracy    <       0.00000003 Ry

     iteration #  4     ecut=   124.00 Ry     beta= 0.70
     Davidson diagonalization with overlap
     ethr =  1.11E-10,  avg # of iterations =  5.6

     negative rho (up, down):  9.673E-04 0.000E+00

     total cpu time spent up to now is       55.9 secs

     total energy              =    -448.58683851 Ry
     estimated scf accuracy    <       0.00000003 Ry

     iteration #  5     ecut=   124.00 Ry     beta= 0.70
     Davidson diagonalization with overlap
     ethr =  9.28E-11,  avg # of iterations =  1.0

     negative rho (up, down):  9.673E-04 0.000E+00

     total cpu time spent up to now is       56.8 secs

     total energy              =    -448.58683851 Ry
     estimated scf accuracy    <          7.2E-09 Ry

     iteration #  6     ecut=   124.00 Ry     beta= 0.70
     Davidson diagonalization with overlap
     ethr =  2.57E-11,  avg # of iterations =  2.2

     negative rho (up, down):  9.673E-04 0.000E+00

     total cpu time spent up to now is       57.8 secs

     End of self-consistent calculation

          k = 0.0000 0.0000 0.0000 (  3911 PWs)   bands (ev):

   -69.5352 -39.5217 -35.5956 -35.5956 -35.5956 -15.6206 -15.6206 -15.6206
     9.8694  13.6151  13.6151  16.3414  16.3414  16.3414  18.6362  18.6362
    20.5305  20.5305

          k = 0.0000 0.0000 0.0904 (  3947 PWs)   bands (ev):

   -69.5350 -39.5197 -35.5981 -35.5953 -35.5953 -15.6481 -15.6189 -15.6189
    10.0396  13.6968  13.7016  16.3289  16.3289  16.3785  18.5336  18.6746
    20.2861  20.2861

          k = 0.0000 0.0000 0.1808 (  3964 PWs)   bands (ev):

   -69.5343 -39.5142 -35.6045 -35.5943 -35.5943 -15.7216 -15.6144 -15.6144
    10.5340  13.9254  13.9357  16.3000  16.3000  16.4823  18.2369  18.7608
    19.7165  19.7165

          k = 0.0000 0.0000 0.2712 (  3988 PWs)   bands (ev):

   -69.5334 -39.5071 -35.6129 -35.5931 -35.5931 -15.8167 -15.6085 -15.6085
    11.3027  14.1776  14.3116  16.2750  16.2750  16.6297  17.7824  18.7896
    19.0857  19.0857

          k = 0.0000 0.0000 0.3616 (  4008 PWs)   bands (ev):

   -69.5326 -39.5006 -35.6206 -35.5919 -35.5919 -15.9030 -15.6031 -15.6031
    12.2540  14.2740  14.7766  16.2693  16.2693  16.7797  17.2419  18.5693
    18.5693  18.5962

          k = 0.0000 0.0000 0.4520 (  3992 PWs)   bands (ev):

   -69.5321 -39.4967 -35.6251 -35.5912 -35.5912 -15.9538 -15.5999 -15.5999
    13.2194  13.9974  15.1930  16.2772  16.2772  16.7794  16.8775  18.2773
    18.2773  18.2855

          k = 0.0000 0.0904 0.0904 (  3966 PWs)   bands (ev):

   -69.5347 -39.5176 -35.5988 -35.5968 -35.5949 -15.6491 -15.6433 -15.6171
    10.2065  13.7740  13.7893  16.2487  16.3086  16.4720  18.5187  18.6461
    20.0177  20.0415

          k = 0.0000 0.0904 0.1808 (  3978 PWs)   bands (ev):

   -69.5341 -39.5118 -35.6049 -35.5967 -35.5940 -15.7193 -15.6407 -15.6125
    10.6904  13.9854  14.0290  16.1702  16.2591  16.5865  18.2904  18.7214
    19.4860  19.5197

          k = 0.0000 0.0904 0.2712 (  3995 PWs)   bands (ev):

   -69.5332 -39.5043 -35.6135 -35.5959 -35.5928 -15.8134 -15.6341 -15.6063
    11.4393  14.2394  14.3774  16.1273  16.2032  16.6695  17.9034  18.6892
    18.9954  19.0315

          k = 0.0000 0.0904 0.3616 (  3991 PWs)   bands (ev):

   -69.5324 -39.4974 -35.6213 -35.5952 -35.5916 -15.8988 -15.6280 -15.6007
    12.3589  14.3265  14.8063  16.1321  16.1528  16.6761  17.4602  18.2866
    18.7051  18.8402

          k = 0.0000 0.0904 0.4520 (  3999 PWs)   bands (ev):

   -69.5319 -39.4933 -35.6259 -35.5948 -35.5910 -15.9492 -15.6243 -15.5973
    13.2806  14.0462  15.1868  16.0860  16.1671  16.6239  17.1408  17.9977
    18.5736  18.6478

          k = 0.0000 0.1808 0.1808 (  3972 PWs)   bands (ev):

   -69.5334 -39.5052 -35.6075 -35.6014 -35.5931 -15.7201 -15.7040 -15.6073
    11.1397  14.1278  14.2987  16.0004  16.1651  16.6612  18.3408  18.6814
    18.9799  19.2036

          k = 0.0000 0.1808 0.2712 (  4003 PWs)   bands (ev):

   -69.5325 -39.4967 -35.6151 -35.6034 -35.5919 -15.8047 -15.7021 -15.6004
    11.8213  14.2865  14.6657  15.8820  16.0746  16.5874  18.1723  18.4404
    18.8363  19.0288

          k = 0.0000 0.1808 0.3616 (  3997 PWs)   bands (ev):

   -69.5317 -39.4888 -35.6232 -35.6040 -35.5908 -15.8877 -15.6942 -15.5942
    12.6267  14.3120  15.0434  15.8465  16.0435  16.3833  17.8772  18.1064
    18.9549  19.0474

          k = 0.0000 0.1808 0.4520 (  3990 PWs)   bands (ev):

   -69.5312 -39.4841 -35.6281 -35.6043 -35.5901 -15.9366 -15.6895 -15.5904
    13.3799  14.0668  15.3200  15.8953  16.0725  16.1714  17.7102  17.8655
    18.9716  19.1412

          k = 0.0000 0.2712 0.2712 (  4000 PWs)   bands (ev):

   -69.5316 -39.4867 -35.6188 -35.6116 -35.5908 -15.8012 -15.7824 -15.5927
    12.3633  14.2629  15.1032  15.6787  16.0249  16.3265  18.2219  18.3967
    18.7371  19.1974

          k = 0.0000 0.2712 0.3616 (  3993 PWs)   bands (ev):

   -69.5308 -39.4775 -35.6258 -35.6154 -35.5897 -15.8731 -15.7800 -15.5856
    12.9285  14.1400  15.5362  15.5715  16.0102  16.1707  18.0413  18.3751
    18.9006  19.4662

          k = 0.0000 0.2712 0.4520 (  3996 PWs)   bands (ev):

   -69.5303 -39.4720 -35.6309 -35.6167 -35.5891 -15.9202 -15.7739 -15.5814
    13.3608  13.9437  15.5836  15.7541  15.7736  16.5097  17.7994  18.3327
    19.1027  19.7075

          k = 0.0000 0.3616 0.3616 (  4002 PWs)   bands (ev):

   -69.5300 -39.4670 -35.6292 -35.6249 -35.5887 -15.8643 -15.8534 -15.5778
    13.1384  13.9326  15.3891  15.6714  16.1265  16.5541  18.1617  18.7262
    18.7372  19.8610

          k = 0.0000 0.3616 0.4520 (  3999 PWs)   bands (ev):

   -69.5295 -39.4608 -35.6336 -35.6282 -35.5881 -15.9051 -15.8507 -15.5731
    13.2353  13.7912  15.3384  15.4375  16.4851  17.1859  17.9249  18.7822
    18.9432  20.1566

          k = 0.0000 0.4520 0.4520 (  3998 PWs)   bands (ev):

   -69.5291 -39.4542 -35.6354 -35.6348 -35.5875 -15.8968 -15.8952 -15.5682
    13.1343  13.6990  15.2203  15.2535  17.1708  17.6322  18.2939  18.4747
    19.0411  20.4216

          k = 0.0904 0.0904 0.0904 (  3959 PWs)   bands (ev):

   -69.5345 -39.5153 -35.5985 -35.5985 -35.5956 -15.6495 -15.6416 -15.6416
    10.3706  13.8628  13.8628  16.2266  16.2266  16.5469  18.5692  18.5692
    19.6100  20.2658

          k = 0.0904 0.0904 0.1808 (  3966 PWs)   bands (ev):

   -69.5338 -39.5093 -35.6050 -35.5975 -35.5955 -15.7169 -15.6403 -15.6370
    10.8454  14.0763  14.0908  16.1188  16.1682  16.6266  18.3473  18.6846
    19.1469  19.6935

          k = 0.0904 0.0904 0.2712 (  3992 PWs)   bands (ev):

   -69.5329 -39.5014 -35.6138 -35.5962 -35.5952 -15.8101 -15.6327 -15.6310
    11.5772  14.3391  14.4074  16.0609  16.0888  16.6218  18.0120  18.6343
    18.9547  19.0719

          k = 0.0904 0.0904 0.3616 (  3994 PWs)   bands (ev):

   -69.5321 -39.4942 -35.6219 -35.5951 -35.5948 -15.8948 -15.6256 -15.6255
    12.4690  14.4082  14.8069  15.9909  16.0895  16.5389  17.6369  18.3524
    18.5775  19.0458

          k = 0.0904 0.0904 0.4520 (  4007 PWs)   bands (ev):

   -69.5316 -39.4899 -35.6266 -35.5946 -35.5944 -15.9447 -15.6222 -15.6214
    13.3527  14.1140  15.1566  15.8692  16.2003  16.4522  17.3672  18.0697
    18.3069  19.1449

          k = 0.0904 0.1808 0.1808 (  3984 PWs)   bands (ev):

   -69.5331 -39.5026 -35.6071 -35.6021 -35.5956 -15.7170 -15.7022 -15.6331
    11.2902  14.2286  14.3478  15.9641  16.0608  16.5896  18.4083  18.6536
    18.8696  19.4162

          k = 0.0904 0.1808 0.2712 (  3994 PWs)   bands (ev):

   -69.5322 -39.4938 -35.6151 -35.6035 -35.5949 -15.8016 -15.6998 -15.6258
    11.9625  14.4029  14.6837  15.8391  15.9629  16.4127  18.2595  18.5586
    18.8724  19.0851

          k = 0.0904 0.1808 0.3616 (  4001 PWs)   bands (ev):

   -69.5314 -39.4857 -35.6235 -35.6038 -35.5942 -15.8841 -15.6919 -15.6191
    12.7515  14.4359  14.9989  15.7663  15.9533  16.2342  18.0282  18.2181
    18.7340  19.3401

          k = 0.0904 0.1808 0.4520 (  3993 PWs)   bands (ev):

   -69.5310 -39.4808 -35.6285 -35.6040 -35.5937 -15.9328 -15.6871 -15.6151
    13.4820  14.1754  15.2291  15.6985  16.0535  16.1747  17.8571  17.9344
    18.5354  19.7174

          k = 0.0904 0.2712 0.2712 (  3989 PWs)   bands (ev):

   -69.5314 -39.4837 -35.6183 -35.6118 -35.5940 -15.7977 -15.7805 -15.6179
    12.5079  14.3839  15.1126  15.6408  15.8995  16.1191  18.3366  18.5498
    18.7193  19.3271

          k = 0.0904 0.2712 0.3616 (  3985 PWs)   bands (ev):

   -69.5306 -39.4745 -35.6257 -35.6153 -35.5931 -15.8701 -15.7778 -15.6106
    13.0699  14.2627  15.4738  15.5325  15.8963  16.0404  18.1215  18.4632
    18.7880  19.7288

          k = 0.0904 0.2712 0.4520 (  4006 PWs)   bands (ev):

   -69.5301 -39.4690 -35.6310 -35.6164 -35.5926 -15.9171 -15.7717 -15.6062
    13.4884  14.0676  15.5019  15.5482  15.8436  16.4212  17.8355  18.4347
    18.7164  20.2006

          k = 0.0904 0.3616 0.3616 (  3992 PWs)   bands (ev):

   -69.5298 -39.4641 -35.6287 -35.6249 -35.5921 -15.8615 -15.8516 -15.6028
    13.2819  14.0545  15.3591  15.5839  16.0846  16.3856  18.1282  18.6161
    18.8249  20.1646

          k = 0.0904 0.3616 0.4520 (  4002 PWs)   bands (ev):

   -69.5293 -39.4580 -35.6333 -35.6278 -35.5915 -15.9027 -15.8487 -15.5981
    13.3695  13.9169  15.3063  15.3869  16.4107  17.0119  17.8850  18.5782
    18.9152  20.3935

          k = 0.0904 0.4520 0.4520 (  3993 PWs)   bands (ev):

   -69.5288 -39.4515 -35.6349 -35.6343 -35.5909 -15.8948 -15.8934 -15.5933
    13.2689  13.8248  15.1980  15.2268  17.1123  17.4880  18.0545  18.1460
    19.1178  20.6127

          k = 0.1808 0.1808 0.1808 (  3989 PWs)   bands (ev):

   -69.5325 -39.4954 -35.6060 -35.6060 -35.6000 -15.7133 -15.6974 -15.6974
    11.7194  14.4874  14.4874  15.8672  15.8672  16.3324  18.5716  18.5716
    18.9240  19.6529

          k = 0.1808 0.1808 0.2712 (  3992 PWs)   bands (ev):

   -69.5316 -39.4860 -35.6152 -35.6047 -35.6019 -15.7933 -15.6958 -15.6912
    12.3576  14.6929  14.7478  15.7326  15.7369  16.0265  18.4474  18.6409
    19.0569  19.2219

          k = 0.1808 0.1808 0.3616 (  3994 PWs)   bands (ev):

   -69.5308 -39.4774 -35.6242 -35.6034 -35.6029 -15.8745 -15.6857 -15.6854
    13.0807  14.7122  14.9223  15.5990  15.7637  15.9568  18.3170  18.3775
    18.5927  19.7694

          k = 0.1808 0.1808 0.4520 (  3986 PWs)   bands (ev):

   -69.5303 -39.4722 -35.6296 -35.6035 -35.6026 -15.9224 -15.6820 -15.6795
    13.7120  14.3817  15.1088  15.4789  15.8753  16.1285  17.9728  18.2454
    18.3263  20.1338

          k = 0.1808 0.2712 0.2712 (  3994 PWs)   bands (ev):

   -69.5307 -39.4758 -35.6172 -35.6127 -35.6027 -15.7881 -15.7756 -15.6850
    12.9134  14.7139  15.1341  15.5427  15.6183  15.6944  18.4633  18.6425
    18.9623  19.6885

          k = 0.1808 0.2712 0.3616 (  3988 PWs)   bands (ev):

   -69.5299 -39.4664 -35.6254 -35.6148 -35.6022 -15.8620 -15.7716 -15.6771
    13.4631  14.5845  15.2812  15.4289  15.6665  15.7792  18.2315  18.4739
    18.8573  19.9891

          k = 0.1808 0.2712 0.4520 (  3991 PWs)   bands (ev):

   -69.5294 -39.4608 -35.6312 -35.6154 -35.6018 -15.9089 -15.7659 -15.6724
    13.8330  14.3740  15.2595  15.3728  15.7478  16.2115  17.8767  18.3164
    18.7689  20.2042

          k = 0.1808 0.3616 0.3616 (  3990 PWs)   bands (ev):

   -69.5291 -39.4564 -35.6275 -35.6247 -35.6013 -15.8538 -15.8466 -15.6694
    13.6918  14.3728  15.2838  15.3947  15.9555  15.9722  18.1063  18.3330
    19.1151  20.1489

          k = 0.1808 0.3616 0.4520 (  3993 PWs)   bands (ev):

   -69.5286 -39.4504 -35.6326 -35.6267 -35.6007 -15.8964 -15.8433 -15.6647
    13.7508  14.2461  15.2299  15.2754  16.1659  16.5880  17.8259  18.1812
    19.1896  20.3846

          k = 0.1808 0.4520 0.4520 (  4002 PWs)   bands (ev):

   -69.5282 -39.4441 -35.6336 -35.6332 -35.6001 -15.8894 -15.8884 -15.6602
    13.6545  14.1601  15.1447  15.1655  16.8363  16.9352  17.7170  17.8966
    19.3732  20.6694

          k = 0.2712 0.2712 0.2712 (  3998 PWs)   bands (ev):

   -69.5298 -39.4654 -35.6157 -35.6157 -35.6120 -15.7784 -15.7691 -15.7691
    13.4793  15.1520  15.1520  15.2249  15.4227  15.4227  18.4701  18.4701
    19.4217  19.4217

          k = 0.2712 0.2712 0.3616 (  3992 PWs)   bands (ev):

   -69.5290 -39.4559 -35.6253 -35.6143 -35.6139 -15.8515 -15.7636 -15.7632
    13.9838  14.8456  15.1533  15.3226  15.4203  15.6302  18.2180  18.2655
    19.2728  19.9061

          k = 0.2712 0.2712 0.4520 (  3990 PWs)   bands (ev):

   -69.5286 -39.4502 -35.6314 -35.6145 -35.6135 -15.8981 -15.7597 -15.7568
    14.2160  14.6188  15.1438  15.2701  15.5884  16.0522  17.8212  18.1419
    19.2201  20.2377

          k = 0.2712 0.3616 0.3616 (  3988 PWs)   bands (ev):

   -69.5282 -39.4461 -35.6259 -35.6244 -35.6133 -15.8437 -15.8401 -15.7557
    14.2972  14.7119  15.2011  15.2896  15.5086  15.7476  18.0593  18.0606
    19.5694  20.1017

          k = 0.2712 0.3616 0.4520 (  3992 PWs)   bands (ev):

   -69.5278 -39.4404 -35.6317 -35.6252 -35.6128 -15.8881 -15.8362 -15.7511
    14.2960  14.6252  15.1621  15.2118  15.7842  16.1425  17.7267  17.9781
    19.6302  20.4194

          k = 0.2712 0.4520 0.4520 (  4000 PWs)   bands (ev):

   -69.5273 -39.4345 -35.6319 -35.6317 -35.6120 -15.8824 -15.8819 -15.7469
    14.2288  14.5851  15.0960  15.1224  16.2959  16.3247  17.5603  17.8194
    19.8031  20.7057

          k = 0.3616 0.3616 0.3616 (  3999 PWs)   bands (ev):

   -69.5275 -39.4367 -35.6244 -35.6244 -35.6242 -15.8345 -15.8341 -15.8341
    14.7107  15.0100  15.1549  15.1549  15.5091  15.5091  17.8892  17.8892
    20.1072  20.1072

          k = 0.3616 0.3616 0.4520 (  4008 PWs)   bands (ev):

   -69.5270 -39.4311 -35.6309 -35.6241 -35.6235 -15.8805 -15.8305 -15.8288
    14.7090  14.8717  15.1801  15.3098  15.4822  15.8463  17.6350  17.8140
    20.1196  20.5094

          k = 0.3616 0.4520 0.4520 (  3994 PWs)   bands (ev):

   -69.5265 -39.4256 -35.6304 -35.6304 -35.6230 -15.8760 -15.8760 -15.8258
    14.8145  14.9530  15.0961  15.1974  15.7772  15.8294  17.5207  17.6823
    20.3364  20.7343

          k = 0.4520 0.4520 0.4520 (  3972 PWs)   bands (ev):

   -69.5261 -39.4204 -35.6296 -35.6295 -35.6295 -15.8724 -15.8724 -15.8720
    15.0377  15.1750  15.1750  15.4765  15.4765  15.4927  17.5112  17.5112
    20.7505  20.7505

     the Fermi energy is    17.2462 ev

!    total energy              =    -448.58683852 Ry
     estimated scf accuracy    <          9.9E-12 Ry
     smearing contrib. (-TS)   =       0.00006532 Ry
     internal energy E=F+TS    =    -448.58690384 Ry

     The total energy is F=E-TS. E is the sum of the following terms:
     one-electron contribution =    -153.54904185 Ry
     hartree contribution      =      92.36482512 Ry
     xc contribution           =     -52.85824265 Ry
     ewald contribution        =    -258.39097232 Ry
     one-center paw contrib.   =     -76.15347214 Ry

     convergence has been achieved in   6 iterations

     negative rho (up, down):  9.673E-04 0.000E+00

     Forces acting on atoms (cartesian axes, Ry/au):

     atom    1 type  1   force =     0.00000000    0.00000000    0.00000000
     atom    2 type  2   force =     0.00000000    0.00000000    0.00000000

     Total force =     0.000000     Total SCF correction =     0.000000


     Computing stress (Cartesian axis) and pressure


     negative rho (up, down):  9.673E-04 0.000E+00
          total   stress  (Ry/bohr**3)                   (kbar)     P=       -1.67
  -0.00001133   0.00000000   0.00000000           -1.67        0.00        0.00
   0.00000000  -0.00001133   0.00000000            0.00       -1.67        0.00
   0.00000000   0.00000000  -0.00001133            0.00        0.00       -1.67

     Energy error            =      1.1E-07 Ry
     Gradient error          =      0.0E+00 Ry/Bohr
     Cell gradient error     =      2.0E-02 kbar

     bfgs converged in   3 scf cycles and   2 bfgs steps
     (criteria: energy <  1.0E-04 Ry, force <  1.0E-03 Ry/Bohr, cell <  5.0E-01 kbar)

     End of BFGS Geometry Optimization

     Final enthalpy           =    -448.5888345441 Ry

     File ./TiFe.bfgs deleted, as requested
Begin final coordinates
     new unit-cell volume =    174.11763 a.u.^3 (    25.80157 Ang^3 )
     density =      6.67470 g/cm^3

CELL_PARAMETERS (alat=  5.55330037)
   1.005533206   0.000000000   0.000000000
   0.000000000   1.005533206   0.000000000
   0.000000000   0.000000000   1.005533206

ATOMIC_POSITIONS (crystal)
Fe               0.5000000000        0.5000000000        0.5000000000
Ti               0.0000000000        0.0000000000        0.0000000000
End final coordinates



     Writing config-only to output data dir ./TiFe.save/ :
     XML data file

     Final scf calculation at the relaxed structure.
     The G-vectors are recalculated for the final unit cell
     Results may differ from those at the preceding step.

     Parallelization info
     --------------------
     sticks:   dense  smooth     PW     G-vecs:    dense   smooth      PW
     Min         538     153     44                26612     4051     640
     Max         539     154     45                26615     4054     643
     Sum        4309    1225    357               212911    32423    5137

     Using Slab Decomposition



     bravais-lattice index     =            0
     lattice parameter (alat)  =       5.5533  a.u.
     unit-cell volume          =     174.1176 (a.u.)^3
     number of atoms/cell      =            2
     number of atomic types    =            2
     number of electrons       =        28.00
     number of Kohn-Sham states=           18
     kinetic-energy cutoff     =     124.0000  Ry
     charge density cutoff     =    1736.0000  Ry
     scf convergence threshold =      1.0E-10
     mixing beta               =       0.7000
     number of iterations used =            8  plain     mixing
     press convergence thresh. =      5.0E-01
     Exchange-correlation= PBE
                           (   1   4   3   4   0   0   0)

     celldm(1)=   5.553300  celldm(2)=   0.000000  celldm(3)=   0.000000
     celldm(4)=   0.000000  celldm(5)=   0.000000  celldm(6)=   0.000000

     crystal axes: (cart. coord. in units of alat)
               a(1) = (   1.005533   0.000000   0.000000 )  
               a(2) = (   0.000000   1.005533   0.000000 )  
               a(3) = (   0.000000   0.000000   1.005533 )  

     reciprocal axes: (cart. coord. in units 2 pi/alat)
               b(1) = (  0.994497  0.000000  0.000000 )  
               b(2) = (  0.000000  0.994497  0.000000 )  
               b(3) = (  0.000000  0.000000  0.994497 )  


     PseudoPot. # 1 for Fe read from file:
     ../../pseudos/Fe.pbe-spn-kjpaw_psl.0.2.1.UPF
     MD5 check sum: e86618425769142926afa95317d90200
     Pseudo is Projector augmented-wave + core cor, Zval = 16.0
     Generated using "atomic" code by A. Dal Corso  v.5.0.99 svn rev. 10869
     Shape of augmentation charge: PSQ
     Using radial grid of 1191 points,  6 beta functions with: 
                l(1) =   0
                l(2) =   0
                l(3) =   1
                l(4) =   1
                l(5) =   2
                l(6) =   2
     Q(r) pseudized with 0 coefficients 


     PseudoPot. # 2 for Ti read from file:
     ../../pseudos/ti_pbe_v1.4.uspp.F.UPF
     MD5 check sum: 88a00a6731bd790ddea75d31a80cb452
     Pseudo is Ultrasoft + core correction, Zval = 12.0
     Generated by new atomic code, or converted to UPF format
     Using radial grid of  851 points,  6 beta functions with: 
                l(1) =   0
                l(2) =   0
                l(3) =   1
                l(4) =   1
                l(5) =   2
                l(6) =   2
     Q(r) pseudized with  6 coefficients,  rinner =    1.000   1.000   1.000
                                                       1.000   1.000

     atomic species   valence    mass     pseudopotential
     Fe               16.00    55.84500     Fe( 1.00)
     Ti               12.00    47.86700     Ti( 1.00)

[...]

     total cpu time spent up to now is       97.2 secs

     WARNING: integrated charge=    27.99987531, expected=    28.00000000

     total energy              =    -448.58687035 Ry
     estimated scf accuracy    <          9.2E-09 Ry

     iteration # 33     ecut=   124.00 Ry     beta= 0.70
     Davidson diagonalization with overlap
     ethr =  3.29E-11,  avg # of iterations =  5.5

     negative rho (up, down):  9.675E-04 0.000E+00

     total cpu time spent up to now is       98.5 secs

     WARNING: integrated charge=    27.99996849, expected=    28.00000000

     total energy              =    -448.58687036 Ry
     estimated scf accuracy    <       0.00000007 Ry

     iteration # 34     ecut=   124.00 Ry     beta= 0.70
     Davidson diagonalization with overlap
     ethr =  3.29E-11,  avg # of iterations =  3.1

     negative rho (up, down):  9.675E-04 0.000E+00

     total cpu time spent up to now is       99.5 secs

     WARNING: integrated charge=    27.99999601, expected=    28.00000000

     total energy              =    -448.58687037 Ry
     estimated scf accuracy    <          8.9E-09 Ry

     iteration # 35     ecut=   124.00 Ry     beta= 0.70
     Davidson diagonalization with overlap
     ethr =  3.17E-11,  avg # of iterations =  2.4

     negative rho (up, down):  9.675E-04 0.000E+00

     total cpu time spent up to now is      100.4 secs

     total energy              =    -448.58687037 Ry
     estimated scf accuracy    <          5.8E-10 Ry

     iteration # 36     ecut=   124.00 Ry     beta= 0.70
     Davidson diagonalization with overlap
     ethr =  2.06E-12,  avg # of iterations =  4.4

     negative rho (up, down):  9.675E-04 0.000E+00

     total cpu time spent up to now is      101.6 secs

     total energy              =    -448.58687037 Ry
     estimated scf accuracy    <          1.3E-10 Ry

     iteration # 37     ecut=   124.00 Ry     beta= 0.70
     Davidson diagonalization with overlap
     ethr =  4.58E-13,  avg # of iterations =  2.2

     negative rho (up, down):  9.675E-04 0.000E+00

     total cpu time spent up to now is      102.6 secs

     total energy              =    -448.58687037 Ry
     estimated scf accuracy    <          2.4E-10 Ry

     iteration # 38     ecut=   124.00 Ry     beta= 0.70
     Davidson diagonalization with overlap
     ethr =  4.58E-13,  avg # of iterations =  1.0

     negative rho (up, down):  9.675E-04 0.000E+00

     total cpu time spent up to now is      103.5 secs

     total energy              =    -448.58687037 Ry
     estimated scf accuracy    <          1.4E-10 Ry

     iteration # 39     ecut=   124.00 Ry     beta= 0.70
     Davidson diagonalization with overlap
     ethr =  4.58E-13,  avg # of iterations =  1.0

     negative rho (up, down):  9.675E-04 0.000E+00

     total cpu time spent up to now is      104.4 secs

     End of self-consistent calculation

          k = 0.0000 0.0000 0.0000 (  3959 PWs)   bands (ev):

   -69.5353 -39.5217 -35.5957 -35.5957 -35.5957 -15.6206 -15.6206 -15.6206
     9.8693  13.6151  13.6151  16.3414  16.3414  16.3414  18.6362  18.6362
    20.5305  20.5305

          k = 0.0000 0.0000 0.0904 (  4015 PWs)   bands (ev):

   -69.5350 -39.5197 -35.5981 -35.5953 -35.5953 -15.6481 -15.6189 -15.6189
    10.0396  13.6968  13.7016  16.3289  16.3289  16.3785  18.5336  18.6746
    20.2861  20.2861

          k = 0.0000 0.0000 0.1808 (  4032 PWs)   bands (ev):

   -69.5343 -39.5143 -35.6046 -35.5944 -35.5944 -15.7216 -15.6144 -15.6144
    10.5340  13.9254  13.9357  16.3000  16.3000  16.4823  18.2369  18.7608
    19.7165  19.7165

          k = 0.0000 0.0000 0.2712 (  4060 PWs)   bands (ev):

   -69.5334 -39.5071 -35.6130 -35.5931 -35.5931 -15.8167 -15.6085 -15.6085
    11.3027  14.1776  14.3116  16.2750  16.2750  16.6297  17.7823  18.7896
    19.0857  19.0857

          k = 0.0000 0.0000 0.3616 (  4056 PWs)   bands (ev):

   -69.5326 -39.5006 -35.6207 -35.5920 -35.5920 -15.9030 -15.6031 -15.6031
    12.2540  14.2740  14.7766  16.2693  16.2693  16.7797  17.2419  18.5693
    18.5693  18.5962

          k = 0.0000 0.0000 0.4520 (  4076 PWs)   bands (ev):

   -69.5321 -39.4967 -35.6252 -35.5913 -35.5913 -15.9538 -15.5999 -15.5999
    13.2193  13.9974  15.1930  16.2772  16.2772  16.7794  16.8775  18.2772
    18.2772  18.2855

          k = 0.0000 0.0904 0.0904 (  4024 PWs)   bands (ev):

   -69.5348 -39.5176 -35.5989 -35.5968 -35.5950 -15.6491 -15.6433 -15.6172
    10.2065  13.7740  13.7893  16.2487  16.3086  16.4720  18.5187  18.6461
    20.0176  20.0415

          k = 0.0000 0.0904 0.1808 (  4037 PWs)   bands (ev):

   -69.5341 -39.5118 -35.6050 -35.5967 -35.5941 -15.7193 -15.6407 -15.6125
    10.6903  13.9854  14.0290  16.1702  16.2591  16.5865  18.2904  18.7214
    19.4860  19.5197

          k = 0.0000 0.0904 0.2712 (  4052 PWs)   bands (ev):

   -69.5332 -39.5043 -35.6135 -35.5960 -35.5928 -15.8134 -15.6341 -15.6063
    11.4393  14.2394  14.3774  16.1273  16.2032  16.6695  17.9034  18.6892
    18.9954  19.0314

          k = 0.0000 0.0904 0.3616 (  4052 PWs)   bands (ev):

   -69.5324 -39.4974 -35.6214 -35.5953 -35.5917 -15.8988 -15.6280 -15.6007
    12.3589  14.3265  14.8063  16.1321  16.1528  16.6761  17.4602  18.2866
    18.7051  18.8401

          k = 0.0000 0.0904 0.4520 (  4056 PWs)   bands (ev):

   -69.5319 -39.4933 -35.6260 -35.5949 -35.5910 -15.9492 -15.6243 -15.5973
    13.2806  14.0462  15.1868  16.0860  16.1671  16.6239  17.1408  17.9977
    18.5736  18.6478

          k = 0.0000 0.1808 0.1808 (  4052 PWs)   bands (ev):

   -69.5334 -39.5053 -35.6075 -35.6015 -35.5931 -15.7201 -15.7040 -15.6073
    11.1397  14.1278  14.2987  16.0004  16.1651  16.6612  18.3408  18.6814
    18.9798  19.2036

          k = 0.0000 0.1808 0.2712 (  4058 PWs)   bands (ev):

   -69.5325 -39.4967 -35.6152 -35.6035 -35.5920 -15.8047 -15.7021 -15.6005
    11.8213  14.2865  14.6657  15.8820  16.0746  16.5874  18.1723  18.4404
    18.8363  19.0288

          k = 0.0000 0.1808 0.3616 (  4067 PWs)   bands (ev):

   -69.5317 -39.4888 -35.6233 -35.6041 -35.5909 -15.8877 -15.6943 -15.5942
    12.6267  14.3120  15.0434  15.8465  16.0435  16.3833  17.8772  18.1064
    18.9548  19.0473

          k = 0.0000 0.1808 0.4520 (  4060 PWs)   bands (ev):

   -69.5312 -39.4841 -35.6281 -35.6044 -35.5902 -15.9366 -15.6895 -15.5904
    13.3799  14.0667  15.3199  15.8953  16.0725  16.1714  17.7102  17.8655
    18.9716  19.1411

          k = 0.0000 0.2712 0.2712 (  4062 PWs)   bands (ev):

   -69.5316 -39.4867 -35.6188 -35.6116 -35.5908 -15.8012 -15.7824 -15.5927
    12.3633  14.2629  15.1032  15.6787  16.0249  16.3265  18.2219  18.3967
    18.7371  19.1974

          k = 0.0000 0.2712 0.3616 (  4079 PWs)   bands (ev):

   -69.5308 -39.4775 -35.6259 -35.6155 -35.5898 -15.8731 -15.7801 -15.5856
    12.9285  14.1400  15.5362  15.5715  16.0102  16.1707  18.0413  18.3751
    18.9005  19.4662

          k = 0.0000 0.2712 0.4520 (  4062 PWs)   bands (ev):

   -69.5303 -39.4720 -35.6310 -35.6168 -35.5891 -15.9202 -15.7739 -15.5814
    13.3608  13.9437  15.5836  15.7541  15.7736  16.5097  17.7994  18.3327
    19.1027  19.7075

          k = 0.0000 0.3616 0.3616 (  4070 PWs)   bands (ev):

   -69.5300 -39.4670 -35.6292 -35.6250 -35.5888 -15.8643 -15.8534 -15.5778
    13.1384  13.9326  15.3891  15.6714  16.1265  16.5541  18.1617  18.7262
    18.7372  19.8610

          k = 0.0000 0.3616 0.4520 (  4065 PWs)   bands (ev):

   -69.5295 -39.4608 -35.6337 -35.6282 -35.5882 -15.9051 -15.8507 -15.5731
    13.2353  13.7912  15.3384  15.4375  16.4851  17.1858  17.9249  18.7822
    18.9432  20.1566

          k = 0.0000 0.4520 0.4520 (  4062 PWs)   bands (ev):

   -69.5291 -39.4542 -35.6354 -35.6348 -35.5876 -15.8968 -15.8953 -15.5682
    13.1343  13.6990  15.2203  15.2535  17.1708  17.6322  18.2939  18.4746
    19.0411  20.4216

          k = 0.0904 0.0904 0.0904 (  4025 PWs)   bands (ev):

   -69.5345 -39.5153 -35.5985 -35.5985 -35.5957 -15.6495 -15.6416 -15.6416
    10.3706  13.8628  13.8628  16.2266  16.2266  16.5469  18.5692  18.5692
    19.6099  20.2658

          k = 0.0904 0.0904 0.1808 (  4036 PWs)   bands (ev):

   -69.5338 -39.5093 -35.6051 -35.5976 -35.5956 -15.7169 -15.6403 -15.6371
    10.8454  14.0763  14.0908  16.1188  16.1682  16.6266  18.3473  18.6845
    19.1469  19.6935

          k = 0.0904 0.0904 0.2712 (  4046 PWs)   bands (ev):

   -69.5329 -39.5014 -35.6139 -35.5963 -35.5952 -15.8101 -15.6327 -15.6311
    11.5772  14.3391  14.4074  16.0609  16.0888  16.6218  18.0120  18.6343
    18.9547  19.0719

          k = 0.0904 0.0904 0.3616 (  4051 PWs)   bands (ev):

   -69.5321 -39.4942 -35.6219 -35.5951 -35.5949 -15.8948 -15.6256 -15.6255
    12.4690  14.4081  14.8069  15.9909  16.0895  16.5389  17.6369  18.3523
    18.5775  19.0458

          k = 0.0904 0.0904 0.4520 (  4063 PWs)   bands (ev):

   -69.5316 -39.4899 -35.6267 -35.5947 -35.5944 -15.9447 -15.6222 -15.6214
    13.3527  14.1139  15.1566  15.8692  16.2003  16.4522  17.3672  18.0697
    18.3069  19.1449

          k = 0.0904 0.1808 0.1808 (  4052 PWs)   bands (ev):

   -69.5332 -39.5026 -35.6071 -35.6021 -35.5957 -15.7170 -15.7022 -15.6331
    11.2902  14.2286  14.3478  15.9641  16.0608  16.5896  18.4083  18.6536
    18.8696  19.4162

          k = 0.0904 0.1808 0.2712 (  4056 PWs)   bands (ev):

   -69.5323 -39.4938 -35.6151 -35.6035 -35.5950 -15.8016 -15.6998 -15.6258
    11.9625  14.4029  14.6837  15.8391  15.9629  16.4127  18.2595  18.5586
    18.8724  19.0851

          k = 0.0904 0.1808 0.3616 (  4068 PWs)   bands (ev):

   -69.5315 -39.4857 -35.6235 -35.6039 -35.5942 -15.8841 -15.6919 -15.6191
    12.7514  14.4359  14.9988  15.7663  15.9533  16.2342  18.0282  18.2181
    18.7340  19.3401

          k = 0.0904 0.1808 0.4520 (  4065 PWs)   bands (ev):

   -69.5310 -39.4809 -35.6286 -35.6040 -35.5937 -15.9328 -15.6871 -15.6151
    13.4820  14.1754  15.2291  15.6985  16.0535  16.1747  17.8571  17.9343
    18.5354  19.7174

          k = 0.0904 0.2712 0.2712 (  4064 PWs)   bands (ev):

   -69.5314 -39.4837 -35.6184 -35.6119 -35.5941 -15.7977 -15.7805 -15.6179
    12.5079  14.3839  15.1126  15.6408  15.8995  16.1191  18.3366  18.5498
    18.7193  19.3270

          k = 0.0904 0.2712 0.3616 (  4064 PWs)   bands (ev):

   -69.5306 -39.4745 -35.6258 -35.6153 -35.5932 -15.8701 -15.7778 -15.6106
    13.0699  14.2627  15.4738  15.5325  15.8962  16.0404  18.1215  18.4632
    18.7880  19.7287

          k = 0.0904 0.2712 0.4520 (  4074 PWs)   bands (ev):

   -69.5301 -39.4690 -35.6311 -35.6165 -35.5926 -15.9171 -15.7717 -15.6062
    13.4884  14.0676  15.5019  15.5482  15.8436  16.4211  17.8355  18.4347
    18.7164  20.2006

          k = 0.0904 0.3616 0.3616 (  4060 PWs)   bands (ev):

   -69.5298 -39.4641 -35.6288 -35.6249 -35.5922 -15.8615 -15.8516 -15.6028
    13.2818  14.0545  15.3590  15.5839  16.0846  16.3855  18.1282  18.6161
    18.8249  20.1646

          k = 0.0904 0.3616 0.4520 (  4069 PWs)   bands (ev):

   -69.5293 -39.4580 -35.6334 -35.6278 -35.5916 -15.9027 -15.8487 -15.5981
    13.3695  13.9169  15.3063  15.3869  16.4107  17.0118  17.8850  18.5782
    18.9152  20.3935

          k = 0.0904 0.4520 0.4520 (  4061 PWs)   bands (ev):

   -69.5288 -39.4515 -35.6350 -35.6344 -35.5910 -15.8948 -15.8934 -15.5933
    13.2689  13.8248  15.1980  15.2268  17.1123  17.4879  18.0545  18.1460
    19.1178  20.6126

          k = 0.1808 0.1808 0.1808 (  4043 PWs)   bands (ev):

   -69.5325 -39.4954 -35.6061 -35.6061 -35.6001 -15.7133 -15.6974 -15.6974
    11.7193  14.4874  14.4874  15.8672  15.8672  16.3324  18.5716  18.5716
    18.9240  19.6529

          k = 0.1808 0.1808 0.2712 (  4050 PWs)   bands (ev):

   -69.5316 -39.4860 -35.6153 -35.6047 -35.6019 -15.7933 -15.6958 -15.6912
    12.3576  14.6929  14.7478  15.7326  15.7369  16.0265  18.4474  18.6409
    19.0569  19.2219

          k = 0.1808 0.1808 0.3616 (  4079 PWs)   bands (ev):

   -69.5308 -39.4774 -35.6243 -35.6035 -35.6030 -15.8745 -15.6857 -15.6854
    13.0807  14.7121  14.9223  15.5990  15.7637  15.9568  18.3170  18.3775
    18.5927  19.7693

          k = 0.1808 0.1808 0.4520 (  4059 PWs)   bands (ev):

   -69.5303 -39.4722 -35.6297 -35.6035 -35.6027 -15.9224 -15.6820 -15.6795
    13.7120  14.3816  15.1088  15.4789  15.8753  16.1285  17.9728  18.2454
    18.3262  20.1338

          k = 0.1808 0.2712 0.2712 (  4056 PWs)   bands (ev):

   -69.5307 -39.4758 -35.6173 -35.6127 -35.6027 -15.7882 -15.7756 -15.6850
    12.9134  14.7139  15.1341  15.5427  15.6183  15.6944  18.4633  18.6425
    18.9623  19.6885

          k = 0.1808 0.2712 0.3616 (  4060 PWs)   bands (ev):

   -69.5299 -39.4664 -35.6255 -35.6149 -35.6023 -15.8620 -15.7716 -15.6771
    13.4630  14.5845  15.2812  15.4289  15.6665  15.7792  18.2315  18.4739
    18.8572  19.9891

          k = 0.1808 0.2712 0.4520 (  4064 PWs)   bands (ev):

   -69.5294 -39.4608 -35.6312 -35.6154 -35.6019 -15.9089 -15.7659 -15.6724
    13.8330  14.3740  15.2595  15.3728  15.7478  16.2115  17.8767  18.3163
    18.7689  20.2041

          k = 0.1808 0.3616 0.3616 (  4060 PWs)   bands (ev):

   -69.5291 -39.4564 -35.6276 -35.6247 -35.6014 -15.8538 -15.8466 -15.6694
    13.6918  14.3728  15.2838  15.3947  15.9555  15.9722  18.1063  18.3330
    19.1151  20.1489

          k = 0.1808 0.3616 0.4520 (  4065 PWs)   bands (ev):

   -69.5287 -39.4504 -35.6327 -35.6267 -35.6008 -15.8964 -15.8433 -15.6647
    13.7508  14.2461  15.2299  15.2754  16.1658  16.5879  17.8259  18.1812
    19.1896  20.3845

          k = 0.1808 0.4520 0.4520 (  4070 PWs)   bands (ev):

   -69.5282 -39.4441 -35.6337 -35.6333 -35.6001 -15.8894 -15.8885 -15.6602
    13.6545  14.1601  15.1447  15.1655  16.8363  16.9351  17.7169  17.8966
    19.3732  20.6694

          k = 0.2712 0.2712 0.2712 (  4058 PWs)   bands (ev):

   -69.5299 -39.4654 -35.6158 -35.6158 -35.6121 -15.7784 -15.7691 -15.7691
    13.4792  15.1520  15.1520  15.2249  15.4227  15.4227  18.4701  18.4701
    19.4217  19.4217

          k = 0.2712 0.2712 0.3616 (  4054 PWs)   bands (ev):

   -69.5291 -39.4559 -35.6253 -35.6144 -35.6140 -15.8515 -15.7636 -15.7632
    13.9838  14.8456  15.1533  15.3226  15.4203  15.6301  18.2180  18.2655
    19.2728  19.9061

          k = 0.2712 0.2712 0.4520 (  4069 PWs)   bands (ev):

   -69.5286 -39.4502 -35.6315 -35.6146 -35.6136 -15.8981 -15.7597 -15.7568
    14.2160  14.6188  15.1438  15.2701  15.5884  16.0522  17.8212  18.1419
    19.2201  20.2377

          k = 0.2712 0.3616 0.3616 (  4059 PWs)   bands (ev):

   -69.5283 -39.4462 -35.6259 -35.6245 -35.6134 -15.8437 -15.8401 -15.7557
    14.2972  14.7119  15.2010  15.2895  15.5086  15.7476  18.0593  18.0606
    19.5694  20.1016

          k = 0.2712 0.3616 0.4520 (  4062 PWs)   bands (ev):

   -69.5278 -39.4404 -35.6318 -35.6253 -35.6128 -15.8881 -15.8362 -15.7511
    14.2960  14.6252  15.1621  15.2118  15.7842  16.1424  17.7267  17.9781
    19.6302  20.4194

          k = 0.2712 0.4520 0.4520 (  4063 PWs)   bands (ev):

   -69.5273 -39.4345 -35.6320 -35.6318 -35.6121 -15.8824 -15.8819 -15.7469
    14.2287  14.5851  15.0960  15.1224  16.2958  16.3247  17.5603  17.8194
    19.8031  20.7057

          k = 0.3616 0.3616 0.3616 (  4053 PWs)   bands (ev):

   -69.5275 -39.4367 -35.6245 -35.6245 -35.6242 -15.8345 -15.8341 -15.8341
    14.7107  15.0100  15.1549  15.1549  15.5091  15.5091  17.8892  17.8892
    20.1072  20.1072

          k = 0.3616 0.3616 0.4520 (  4073 PWs)   bands (ev):

   -69.5270 -39.4311 -35.6309 -35.6242 -35.6236 -15.8805 -15.8305 -15.8288
    14.7090  14.8717  15.1801  15.3097  15.4822  15.8462  17.6350  17.8140
    20.1196  20.5094

          k = 0.3616 0.4520 0.4520 (  4065 PWs)   bands (ev):

   -69.5265 -39.4256 -35.6305 -35.6304 -35.6231 -15.8760 -15.8760 -15.8258
    14.8145  14.9529  15.0960  15.1974  15.7772  15.8294  17.5207  17.6823
    20.3364  20.7343

          k = 0.4520 0.4520 0.4520 (  4071 PWs)   bands (ev):

   -69.5261 -39.4204 -35.6297 -35.6295 -35.6295 -15.8724 -15.8724 -15.8720
    15.0377  15.1750  15.1750  15.4764  15.4764  15.4927  17.5112  17.5112
    20.7505  20.7505

     the Fermi energy is    17.2462 ev

!    total energy              =    -448.58687037 Ry
     estimated scf accuracy    <          2.7E-11 Ry
     smearing contrib. (-TS)   =       0.00006534 Ry
     internal energy E=F+TS    =    -448.58693570 Ry

     The total energy is F=E-TS. E is the sum of the following terms:
     one-electron contribution =    -153.54899654 Ry
     hartree contribution      =      92.36478291 Ry
     xc contribution           =     -52.85827211 Ry
     ewald contribution        =    -258.39097232 Ry
     one-center paw contrib.   =     -76.15347765 Ry

     convergence has been achieved in  39 iterations

     negative rho (up, down):  9.675E-04 0.000E+00

     Forces acting on atoms (cartesian axes, Ry/au):

     atom    1 type  1   force =     0.00000000    0.00000000    0.00000000
     atom    2 type  2   force =     0.00000000    0.00000000    0.00000000

     Total force =     0.000000     Total SCF correction =     0.000000


     Computing stress (Cartesian axis) and pressure


     negative rho (up, down):  9.675E-04 0.000E+00
          total   stress  (Ry/bohr**3)                   (kbar)     P=       -1.54
  -0.00001047   0.00000000   0.00000000           -1.54        0.00        0.00
   0.00000000  -0.00001047   0.00000000            0.00       -1.54        0.00
   0.00000000   0.00000000  -0.00001047            0.00        0.00       -1.54


     Writing all to output data dir ./TiFe.save/ :
     XML data file, charge density, pseudopotentials, collected wavefunctions

     init_run     :      1.76s CPU      1.83s WALL (       2 calls)
     electrons    :     92.08s CPU     96.79s WALL (       4 calls)
     update_pot   :      0.16s CPU      0.17s WALL (       2 calls)
     forces       :      0.91s CPU      0.99s WALL (       4 calls)
     stress       :      5.48s CPU      5.67s WALL (       4 calls)

     Called by init_run:
     wfcinit      :      0.59s CPU      0.61s WALL (       2 calls)
     potinit      :      0.45s CPU      0.46s WALL (       2 calls)
     hinit0       :      0.38s CPU      0.39s WALL (       2 calls)

     Called by electrons:
     c_bands      :     55.20s CPU     56.49s WALL (      91 calls)
     sum_band     :     19.98s CPU     21.78s WALL (      91 calls)
     v_of_rho     :      1.97s CPU      2.12s WALL (      94 calls)
     newd         :     10.54s CPU     11.92s WALL (      94 calls)
     PAW_pot      :      4.80s CPU      4.85s WALL (      96 calls)
     mix_rho      :      0.22s CPU      0.25s WALL (      91 calls)

     Called by c_bands:
     init_us_2    :      1.53s CPU      1.58s WALL (   10864 calls)
     cegterg      :     52.51s CPU     53.71s WALL (    5096 calls)

     Called by *egterg:
     cdiaghg      :      6.16s CPU      6.29s WALL (   19833 calls)
     h_psi        :     40.19s CPU     41.14s WALL (   20113 calls)
     s_psi        :      1.05s CPU      1.08s WALL (   20113 calls)
     g_psi        :      0.25s CPU      0.26s WALL (   14905 calls)

     Called by h_psi:
     h_psi:calbec :      1.54s CPU      1.58s WALL (   20113 calls)
     vloc_psi     :     37.38s CPU     38.26s WALL (   20113 calls)
     add_vuspsi   :      1.07s CPU      1.10s WALL (   20113 calls)

     General routines
     calbec       :      2.36s CPU      2.42s WALL (   29129 calls)
     fft          :      1.24s CPU      1.44s WALL (    1317 calls)
     ffts         :      0.30s CPU      0.30s WALL (     185 calls)
     fftw         :     33.37s CPU     34.13s WALL (  575434 calls)
     interpolate  :      0.38s CPU      0.40s WALL (      94 calls)

     Parallel routines

     PWSCF        :    101.05s CPU    106.29s WALL


   This run was terminated on:  15:33:40  25Oct2025            

=------------------------------------------------------------------------------=
   JOB DONE.
=------------------------------------------------------------------------------=
