
     Program PWSCF v.7.4 starts on 25Oct2025 at 15:17:35 

     This program is part of the open-source Quantum ESPRESSO suite
     for quantum simulation of materials; please cite
         "P. Giannozzi et al., J. Phys.:Condens. Matter 21 395502 (2009);
         "P. Giannozzi et al., J. Phys.:Condens. Matter 29 465901 (2017);
         "P. Giannozzi et al., J. Chem. Phys. 152 154105 (2020);
          URL http://www.quantum-espresso.org", 
     in publications or presentations arising from this work. More details at
     http://www.quantum-espresso.org/quote

     Parallel version (MPI & OpenMP), running on       8 processor cores
     Number of MPI processes:                 8
     Threads/MPI process:                     1

     MPI processes distributed on     1 nodes
     221239 MiB available memory on the printing compute node when the environment starts

     Reading input from TiFe_relaxed1.in

     Current dimensions of program PWSCF are:
     Max number of different atomic species (ntypx) = 10
     Max number of k-points (npk) =  40000
     Max angular momentum in pseudopotentials (lmaxx) =  4
     file Fe.pbe-spn-kjpaw_psl.0.2.1.UPF: wavefunction(s)  3D renormalized

     IMPORTANT: XC functional enforced from input :
     Exchange-correlation= PBE
                           (   1   4   3   4   0   0   0)
     Any further DFT definition will be discarded
     Please, verify this is what you really want

     Message from routine setup:
     using ibrav=0 with symmetry is DISCOURAGED, use correct ibrav instead

     R & G space division:  proc/nbgrp/npool/nimage =       8
     Subspace diagonalization in iterative solution of the eigenvalue problem:
     a serial algorithm will be used


     Parallelization info
     --------------------
     sticks:   dense  smooth     PW     G-vecs:    dense   smooth      PW
     Min         532     151     43                26154     3989     617
     Max         533     152     44                26155     3993     620
     Sum        4257    1209    349               209233    31919    4945

     Using Slab Decomposition



     bravais-lattice index     =            0
     lattice parameter (alat)  =       5.5533  a.u.
     unit-cell volume          =     171.2590 (a.u.)^3
     number of atoms/cell      =            2
     number of atomic types    =            2
     number of electrons       =        28.00
     number of Kohn-Sham states=           18
     kinetic-energy cutoff     =     124.0000  Ry
     charge density cutoff     =    1736.0000  Ry
     scf convergence threshold =      1.0E-08
     mixing beta               =       0.7000
     number of iterations used =            8  plain     mixing
     energy convergence thresh.=      1.0E-04
     force convergence thresh. =      1.0E-03
     press convergence thresh. =      5.0E-01
     Exchange-correlation= PBE
                           (   1   4   3   4   0   0   0)
     nstep                     =           50


     celldm(1)=   5.553300  celldm(2)=   0.000000  celldm(3)=   0.000000
     celldm(4)=   0.000000  celldm(5)=   0.000000  celldm(6)=   0.000000

     crystal axes: (cart. coord. in units of alat)
               a(1) = (   1.000000   0.000000   0.000000 )  
               a(2) = (   0.000000   1.000000   0.000000 )  
               a(3) = (   0.000000   0.000000   1.000000 )  

     reciprocal axes: (cart. coord. in units 2 pi/alat)
               b(1) = (  1.000000  0.000000  0.000000 )  
               b(2) = (  0.000000  1.000000  0.000000 )  
               b(3) = (  0.000000  0.000000  1.000000 )  


     PseudoPot. # 1 for Fe read from file:
     ../../pseudos/Fe.pbe-spn-kjpaw_psl.0.2.1.UPF
     MD5 check sum: e86618425769142926afa95317d90200
     Pseudo is Projector augmented-wave + core cor, Zval = 16.0
     Generated using "atomic" code by A. Dal Corso  v.5.0.99 svn rev. 10869
     Shape of augmentation charge: PSQ
     Using radial grid of 1191 points,  6 beta functions with: 
                l(1) =   0
                l(2) =   0
                l(3) =   1
                l(4) =   1
                l(5) =   2
                l(6) =   2
     Q(r) pseudized with 0 coefficients 


     PseudoPot. # 2 for Ti read from file:
     ../../pseudos/ti_pbe_v1.4.uspp.F.UPF
     MD5 check sum: 88a00a6731bd790ddea75d31a80cb452
     Pseudo is Ultrasoft + core correction, Zval = 12.0
     Generated by new atomic code, or converted to UPF format
     Using radial grid of  851 points,  6 beta functions with: 
                l(1) =   0
                l(2) =   0
                l(3) =   1
                l(4) =   1
                l(5) =   2
                l(6) =   2
     Q(r) pseudized with  6 coefficients,  rinner =    1.000   1.000   1.000
                                                       1.000   1.000

     atomic species   valence    mass     pseudopotential
     Fe               16.00    55.84500     Fe( 1.00)
     Ti               12.00    47.86700     Ti( 1.00)

     48 Sym. Ops., with inversion, found



   Cartesian axes

     site n.     atom                  positions (alat units)
         1        Fe     tau(   1) = (   0.5000000   0.5000000   0.5000000  )
         2        Ti     tau(   2) = (   0.0000000   0.0000000   0.0000000  )

     number of k points=    56  Marzari-Vanderbilt smearing, width (Ry)=  0.0050
                       cart. coord. in units 2pi/alat
        k(    1) = (   0.0000000   0.0000000   0.0000000), wk =   0.0015026
        k(    2) = (   0.0000000   0.0000000   0.0909091), wk =   0.0090158
        k(    3) = (   0.0000000   0.0000000   0.1818182), wk =   0.0090158
        k(    4) = (   0.0000000   0.0000000   0.2727273), wk =   0.0090158
        k(    5) = (   0.0000000   0.0000000   0.3636364), wk =   0.0090158
        k(    6) = (   0.0000000   0.0000000   0.4545455), wk =   0.0090158
        k(    7) = (   0.0000000   0.0909091   0.0909091), wk =   0.0180316
        k(    8) = (   0.0000000   0.0909091   0.1818182), wk =   0.0360631
        k(    9) = (   0.0000000   0.0909091   0.2727273), wk =   0.0360631
        k(   10) = (   0.0000000   0.0909091   0.3636364), wk =   0.0360631
        k(   11) = (   0.0000000   0.0909091   0.4545455), wk =   0.0360631
        k(   12) = (   0.0000000   0.1818182   0.1818182), wk =   0.0180316
        k(   13) = (   0.0000000   0.1818182   0.2727273), wk =   0.0360631
        k(   14) = (   0.0000000   0.1818182   0.3636364), wk =   0.0360631
        k(   15) = (   0.0000000   0.1818182   0.4545455), wk =   0.0360631
        k(   16) = (   0.0000000   0.2727273   0.2727273), wk =   0.0180316
        k(   17) = (   0.0000000   0.2727273   0.3636364), wk =   0.0360631
        k(   18) = (   0.0000000   0.2727273   0.4545455), wk =   0.0360631
        k(   19) = (   0.0000000   0.3636364   0.3636364), wk =   0.0180316
        k(   20) = (   0.0000000   0.3636364   0.4545455), wk =   0.0360631
        k(   21) = (   0.0000000   0.4545455   0.4545455), wk =   0.0180316
        k(   22) = (   0.0909091   0.0909091   0.0909091), wk =   0.0120210
        k(   23) = (   0.0909091   0.0909091   0.1818182), wk =   0.0360631
        k(   24) = (   0.0909091   0.0909091   0.2727273), wk =   0.0360631
        k(   25) = (   0.0909091   0.0909091   0.3636364), wk =   0.0360631
        k(   26) = (   0.0909091   0.0909091   0.4545455), wk =   0.0360631
        k(   27) = (   0.0909091   0.1818182   0.1818182), wk =   0.0360631
        k(   28) = (   0.0909091   0.1818182   0.2727273), wk =   0.0721262
        k(   29) = (   0.0909091   0.1818182   0.3636364), wk =   0.0721262
        k(   30) = (   0.0909091   0.1818182   0.4545455), wk =   0.0721262
        k(   31) = (   0.0909091   0.2727273   0.2727273), wk =   0.0360631
        k(   32) = (   0.0909091   0.2727273   0.3636364), wk =   0.0721262
        k(   33) = (   0.0909091   0.2727273   0.4545455), wk =   0.0721262
        k(   34) = (   0.0909091   0.3636364   0.3636364), wk =   0.0360631
        k(   35) = (   0.0909091   0.3636364   0.4545455), wk =   0.0721262
        k(   36) = (   0.0909091   0.4545455   0.4545455), wk =   0.0360631
        k(   37) = (   0.1818182   0.1818182   0.1818182), wk =   0.0120210
        k(   38) = (   0.1818182   0.1818182   0.2727273), wk =   0.0360631
        k(   39) = (   0.1818182   0.1818182   0.3636364), wk =   0.0360631
        k(   40) = (   0.1818182   0.1818182   0.4545455), wk =   0.0360631
        k(   41) = (   0.1818182   0.2727273   0.2727273), wk =   0.0360631
        k(   42) = (   0.1818182   0.2727273   0.3636364), wk =   0.0721262
        k(   43) = (   0.1818182   0.2727273   0.4545455), wk =   0.0721262
        k(   44) = (   0.1818182   0.3636364   0.3636364), wk =   0.0360631
        k(   45) = (   0.1818182   0.3636364   0.4545455), wk =   0.0721262
        k(   46) = (   0.1818182   0.4545455   0.4545455), wk =   0.0360631
        k(   47) = (   0.2727273   0.2727273   0.2727273), wk =   0.0120210
        k(   48) = (   0.2727273   0.2727273   0.3636364), wk =   0.0360631
        k(   49) = (   0.2727273   0.2727273   0.4545455), wk =   0.0360631
        k(   50) = (   0.2727273   0.3636364   0.3636364), wk =   0.0360631
        k(   51) = (   0.2727273   0.3636364   0.4545455), wk =   0.0721262
        k(   52) = (   0.2727273   0.4545455   0.4545455), wk =   0.0360631
        k(   53) = (   0.3636364   0.3636364   0.3636364), wk =   0.0120210
        k(   54) = (   0.3636364   0.3636364   0.4545455), wk =   0.0360631
        k(   55) = (   0.3636364   0.4545455   0.4545455), wk =   0.0360631
        k(   56) = (   0.4545455   0.4545455   0.4545455), wk =   0.0120210

     Dense  grid:   209233 G-vectors     FFT dimensions: (  75,  75,  75)

     Smooth grid:    31919 G-vectors     FFT dimensions: (  40,  40,  40)

     Estimated max dynamical RAM per process >     117.03 MB

     Estimated total dynamical RAM >     936.25 MB

     Check: negative core charge=   -0.000002

     Initial potential from superposition of free atoms

     starting charge      26.9995, renormalised to      28.0000

     negative rho (up, down):  1.347E-03 0.000E+00
     Starting wfcs are   23 randomized atomic wfcs
     Checking if some PAW data can be deallocated... 

     total cpu time spent up to now is        1.4 secs

     per-process dynamical memory:   142.7 Mb

     Self-consistent Calculation

     iteration #  1     ecut=   124.00 Ry     beta= 0.70
     Davidson diagonalization with overlap
     ethr =  1.00E-02,  avg # of iterations =  2.1

     negative rho (up, down):  7.937E-05 0.000E+00

     total cpu time spent up to now is        2.4 secs

     total energy              =    -434.89047275 Ry
     estimated scf accuracy    <      17.46535633 Ry

     iteration #  2     ecut=   124.00 Ry     beta= 0.70
     Davidson diagonalization with overlap
     ethr =  1.00E-02,  avg # of iterations =  6.0

     negative rho (up, down):  2.353E-05 0.000E+00

     total cpu time spent up to now is        4.0 secs

     total energy              =    -448.51249463 Ry
     estimated scf accuracy    <      66.10195194 Ry

     iteration #  3     ecut=   124.00 Ry     beta= 0.70
     Davidson diagonalization with overlap
     ethr =  1.00E-02,  avg # of iterations =  3.1

     negative rho (up, down):  2.377E-04 0.000E+00

     total cpu time spent up to now is        5.2 secs

     total energy              =    -448.59203340 Ry
     estimated scf accuracy    <      16.77106202 Ry

     iteration #  4     ecut=   124.00 Ry     beta= 0.70
     Davidson diagonalization with overlap
     ethr =  1.00E-02,  avg # of iterations =  2.2

     negative rho (up, down):  2.766E-04 0.000E+00

     total cpu time spent up to now is        6.2 secs

     total energy              =    -449.11252552 Ry
     estimated scf accuracy    <       4.68111793 Ry

     iteration #  5     ecut=   124.00 Ry     beta= 0.70
     Davidson diagonalization with overlap
     ethr =  1.00E-02,  avg # of iterations =  1.0

     negative rho (up, down):  3.285E-04 0.000E+00

     total cpu time spent up to now is        7.0 secs

     total energy              =    -449.11683000 Ry
     estimated scf accuracy    <       4.27451567 Ry

     iteration #  6     ecut=   124.00 Ry     beta= 0.70
     Davidson diagonalization with overlap
     ethr =  1.00E-02,  avg # of iterations =  1.0

     negative rho (up, down):  1.118E-03 0.000E+00

     total cpu time spent up to now is        7.9 secs

     total energy              =    -447.89068457 Ry
     estimated scf accuracy    <       4.50163493 Ry

     iteration #  7     ecut=   124.00 Ry     beta= 0.70
     Davidson diagonalization with overlap
     ethr =  1.00E-02,  avg # of iterations =  3.4

     negative rho (up, down):  1.015E-03 0.000E+00

     total cpu time spent up to now is        8.9 secs

     total energy              =    -448.58840447 Ry
     estimated scf accuracy    <       3.89651472 Ry

     iteration #  8     ecut=   124.00 Ry     beta= 0.70
     Davidson diagonalization with overlap
     ethr =  1.00E-02,  avg # of iterations =  1.0

     negative rho (up, down):  7.976E-04 0.000E+00

     total cpu time spent up to now is        9.8 secs

     total energy              =    -448.43997417 Ry
     estimated scf accuracy    <       1.27715295 Ry

     iteration #  9     ecut=   124.00 Ry     beta= 0.70
     Davidson diagonalization with overlap
     ethr =  4.56E-03,  avg # of iterations =  1.9

     negative rho (up, down):  7.977E-04 0.000E+00

     total cpu time spent up to now is       10.7 secs

     total energy              =    -448.60539805 Ry
     estimated scf accuracy    <       0.26863249 Ry

     iteration # 10     ecut=   124.00 Ry     beta= 0.70
     Davidson diagonalization with overlap
     ethr =  9.59E-04,  avg # of iterations =  1.3

     negative rho (up, down):  8.075E-04 0.000E+00

     total cpu time spent up to now is       11.6 secs

     total energy              =    -448.61289738 Ry
     estimated scf accuracy    <       0.28159432 Ry

     iteration # 11     ecut=   124.00 Ry     beta= 0.70
     Davidson diagonalization with overlap
     ethr =  9.59E-04,  avg # of iterations =  1.0

     negative rho (up, down):  7.617E-04 0.000E+00

     total cpu time spent up to now is       12.5 secs

     total energy              =    -448.67957078 Ry
     estimated scf accuracy    <       0.34549008 Ry

     iteration # 12     ecut=   124.00 Ry     beta= 0.70
     Davidson diagonalization with overlap
     ethr =  9.59E-04,  avg # of iterations =  1.8

     negative rho (up, down):  7.932E-04 0.000E+00

     total cpu time spent up to now is       13.4 secs

     total energy              =    -448.62277485 Ry
     estimated scf accuracy    <       1.28404054 Ry

     iteration # 13     ecut=   124.00 Ry     beta= 0.70
     Davidson diagonalization with overlap
     ethr =  9.59E-04,  avg # of iterations =  1.2

     negative rho (up, down):  9.274E-04 0.000E+00

     total cpu time spent up to now is       14.3 secs

     total energy              =    -448.63537755 Ry
     estimated scf accuracy    <       0.58154385 Ry

     iteration # 14     ecut=   124.00 Ry     beta= 0.70
     Davidson diagonalization with overlap
     ethr =  9.59E-04,  avg # of iterations =  1.0

     negative rho (up, down):  1.025E-03 0.000E+00

     total cpu time spent up to now is       15.2 secs

     total energy              =    -448.61055071 Ry
     estimated scf accuracy    <       0.50368914 Ry

     iteration # 15     ecut=   124.00 Ry     beta= 0.70
     Davidson diagonalization with overlap
     ethr =  9.59E-04,  avg # of iterations =  1.0

     negative rho (up, down):  1.032E-03 0.000E+00

     total cpu time spent up to now is       16.0 secs

     total energy              =    -448.61143942 Ry
     estimated scf accuracy    <       0.31963621 Ry

     iteration # 16     ecut=   124.00 Ry     beta= 0.70
     Davidson diagonalization with overlap
     ethr =  9.59E-04,  avg # of iterations =  1.0

     negative rho (up, down):  1.077E-03 0.000E+00

     total cpu time spent up to now is       16.9 secs

     total energy              =    -448.59313187 Ry
     estimated scf accuracy    <       0.28283031 Ry

     iteration # 17     ecut=   124.00 Ry     beta= 0.70
     Davidson diagonalization with overlap
     ethr =  9.59E-04,  avg # of iterations =  1.0

     negative rho (up, down):  1.074E-03 0.000E+00

     total cpu time spent up to now is       17.8 secs

     total energy              =    -448.60188466 Ry
     estimated scf accuracy    <       0.07727334 Ry

     iteration # 18     ecut=   124.00 Ry     beta= 0.70
     Davidson diagonalization with overlap
     ethr =  2.76E-04,  avg # of iterations =  1.6

     negative rho (up, down):  9.925E-04 0.000E+00

     total cpu time spent up to now is       18.7 secs

     total energy              =    -448.58361172 Ry
     estimated scf accuracy    <       0.14906512 Ry

     iteration # 19     ecut=   124.00 Ry     beta= 0.70
     Davidson diagonalization with overlap
     ethr =  2.76E-04,  avg # of iterations =  1.1

     negative rho (up, down):  9.436E-04 0.000E+00

     total cpu time spent up to now is       19.6 secs

     total energy              =    -448.59412596 Ry
     estimated scf accuracy    <       0.04848610 Ry

     iteration # 20     ecut=   124.00 Ry     beta= 0.70
     Davidson diagonalization with overlap
     ethr =  1.73E-04,  avg # of iterations =  1.1

     negative rho (up, down):  1.023E-03 0.000E+00

     total cpu time spent up to now is       20.5 secs

     total energy              =    -448.57755581 Ry
     estimated scf accuracy    <       0.17402925 Ry

     iteration # 21     ecut=   124.00 Ry     beta= 0.70
     Davidson diagonalization with overlap
     ethr =  1.73E-04,  avg # of iterations =  2.1

     negative rho (up, down):  1.012E-03 0.000E+00

     total cpu time spent up to now is       21.4 secs

     total energy              =    -448.58650556 Ry
     estimated scf accuracy    <       0.00384583 Ry

     iteration # 22     ecut=   124.00 Ry     beta= 0.70
     Davidson diagonalization with overlap
     ethr =  1.37E-05,  avg # of iterations =  4.6

     negative rho (up, down):  1.004E-03 0.000E+00

     total cpu time spent up to now is       22.5 secs

     total energy              =    -448.58691254 Ry
     estimated scf accuracy    <       0.00198474 Ry

     iteration # 23     ecut=   124.00 Ry     beta= 0.70
     Davidson diagonalization with overlap
     ethr =  7.09E-06,  avg # of iterations =  1.5

     negative rho (up, down):  1.006E-03 0.000E+00

     total cpu time spent up to now is       23.4 secs

     total energy              =    -448.58700272 Ry
     estimated scf accuracy    <       0.00176934 Ry

     iteration # 24     ecut=   124.00 Ry     beta= 0.70
     Davidson diagonalization with overlap
     ethr =  6.32E-06,  avg # of iterations =  1.0

     negative rho (up, down):  9.532E-04 0.000E+00

     total cpu time spent up to now is       24.3 secs

     total energy              =    -448.58622430 Ry
     estimated scf accuracy    <       0.00189335 Ry

     iteration # 25     ecut=   124.00 Ry     beta= 0.70
     Davidson diagonalization with overlap
     ethr =  6.32E-06,  avg # of iterations =  2.5

     negative rho (up, down):  9.519E-04 0.000E+00

     total cpu time spent up to now is       25.3 secs

     total energy              =    -448.58664002 Ry
     estimated scf accuracy    <       0.00120789 Ry

     iteration # 26     ecut=   124.00 Ry     beta= 0.70
     Davidson diagonalization with overlap
     ethr =  4.31E-06,  avg # of iterations =  1.0

     negative rho (up, down):  9.350E-04 0.000E+00

     total cpu time spent up to now is       26.2 secs

     total energy              =    -448.58685540 Ry
     estimated scf accuracy    <       0.00115499 Ry

     iteration # 27     ecut=   124.00 Ry     beta= 0.70
     Davidson diagonalization with overlap
     ethr =  4.12E-06,  avg # of iterations =  2.0

     negative rho (up, down):  9.665E-04 0.000E+00

     total cpu time spent up to now is       27.1 secs

     total energy              =    -448.58628948 Ry
     estimated scf accuracy    <       0.00358739 Ry

     iteration # 28     ecut=   124.00 Ry     beta= 0.70
     Davidson diagonalization with overlap
     ethr =  4.12E-06,  avg # of iterations =  2.0

     negative rho (up, down):  9.722E-04 0.000E+00

     total cpu time spent up to now is       28.1 secs

     total energy              =    -448.58652077 Ry
     estimated scf accuracy    <       0.00004731 Ry

     iteration # 29     ecut=   124.00 Ry     beta= 0.70
     Davidson diagonalization with overlap
     ethr =  1.69E-07,  avg # of iterations =  4.7

     negative rho (up, down):  9.640E-04 0.000E+00

     total cpu time spent up to now is       29.2 secs

     total energy              =    -448.58653251 Ry
     estimated scf accuracy    <       0.00024121 Ry

     iteration # 30     ecut=   124.00 Ry     beta= 0.70
     Davidson diagonalization with overlap
     ethr =  1.69E-07,  avg # of iterations =  3.7

     negative rho (up, down):  9.643E-04 0.000E+00

     total cpu time spent up to now is       30.3 secs

     total energy              =    -448.58655214 Ry
     estimated scf accuracy    <       0.00000020 Ry

     iteration # 31     ecut=   124.00 Ry     beta= 0.70
     Davidson diagonalization with overlap
     ethr =  7.22E-10,  avg # of iterations =  5.8

     negative rho (up, down):  9.639E-04 0.000E+00

     total cpu time spent up to now is       31.7 secs

     total energy              =    -448.58655245 Ry
     estimated scf accuracy    <       0.00000110 Ry

     iteration # 32     ecut=   124.00 Ry     beta= 0.70
     Davidson diagonalization with overlap
     ethr =  7.22E-10,  avg # of iterations =  3.7

     negative rho (up, down):  9.638E-04 0.000E+00

     total cpu time spent up to now is       32.7 secs

     total energy              =    -448.58655251 Ry
     estimated scf accuracy    <       0.00000016 Ry

     iteration # 33     ecut=   124.00 Ry     beta= 0.70
     Davidson diagonalization with overlap
     ethr =  5.58E-10,  avg # of iterations =  2.1

     negative rho (up, down):  9.641E-04 0.000E+00

     total cpu time spent up to now is       33.6 secs

     total energy              =    -448.58655247 Ry
     estimated scf accuracy    <       0.00000034 Ry

     iteration # 34     ecut=   124.00 Ry     beta= 0.70
     Davidson diagonalization with overlap
     ethr =  5.58E-10,  avg # of iterations =  2.0

     negative rho (up, down):  9.642E-04 0.000E+00

     total cpu time spent up to now is       34.6 secs

     total energy              =    -448.58655249 Ry
     estimated scf accuracy    <       0.00000001 Ry

     iteration # 35     ecut=   124.00 Ry     beta= 0.70
     Davidson diagonalization with overlap
     ethr =  5.03E-11,  avg # of iterations =  4.2

     negative rho (up, down):  9.641E-04 0.000E+00

     total cpu time spent up to now is       35.7 secs

     total energy              =    -448.58655249 Ry
     estimated scf accuracy    <       0.00000003 Ry

     iteration # 36     ecut=   124.00 Ry     beta= 0.70
     Davidson diagonalization with overlap
     ethr =  5.03E-11,  avg # of iterations =  3.8

     negative rho (up, down):  9.641E-04 0.000E+00

     total cpu time spent up to now is       36.7 secs

     total energy              =    -448.58655249 Ry
     estimated scf accuracy    <       0.00000001 Ry

     iteration # 37     ecut=   124.00 Ry     beta= 0.70
     Davidson diagonalization with overlap
     ethr =  3.67E-11,  avg # of iterations =  1.1

     negative rho (up, down):  9.642E-04 0.000E+00

     total cpu time spent up to now is       37.6 secs

     End of self-consistent calculation

          k = 0.0000 0.0000 0.0000 (  3911 PWs)   bands (ev):

   -69.2103 -39.1519 -35.2713 -35.2713 -35.2713 -15.2461 -15.2461 -15.2461
    10.1528  13.8638  13.8638  16.6568  16.6568  16.6568  18.9982  18.9982
    20.9365  20.9365

          k = 0.0000 0.0000 0.0909 (  3947 PWs)   bands (ev):

   -69.2100 -39.1497 -35.2739 -35.2710 -35.2710 -15.2754 -15.2443 -15.2443
    10.3257  13.9470  13.9536  16.6441  16.6441  16.6947  18.8926  19.0379
    20.6857  20.6857

          k = 0.0000 0.0000 0.1818 (  3964 PWs)   bands (ev):

   -69.2093 -39.1440 -35.2806 -35.2699 -35.2699 -15.3533 -15.2397 -15.2397
    10.8272  14.1866  14.1905  16.6148  16.6148  16.8008  18.5874  19.1278
    20.1021  20.1021

          k = 0.0000 0.0000 0.2727 (  3988 PWs)   bands (ev):

   -69.2083 -39.1366 -35.2894 -35.2686 -35.2686 -15.4541 -15.2335 -15.2335
    11.6057  14.4523  14.5738  16.5899  16.5899  16.9516  18.1202  19.1616
    19.4563  19.4563

          k = 0.0000 0.0000 0.3636 (  4008 PWs)   bands (ev):

   -69.2074 -39.1297 -35.2974 -35.2673 -35.2673 -15.5456 -15.2278 -15.2278
    12.5660  14.5651  15.0485  16.5850  16.5850  17.1052  17.5652  18.9274
    18.9274  18.9715

          k = 0.0000 0.0000 0.4545 (  3992 PWs)   bands (ev):

   -69.2069 -39.1256 -35.3021 -35.2666 -35.2666 -15.5994 -15.2245 -15.2245
    13.5347  14.3044  15.4744  16.5939  16.5939  17.0902  17.2053  18.6282
    18.6282  18.6588

          k = 0.0000 0.0909 0.0909 (  3966 PWs)   bands (ev):

   -69.2097 -39.1475 -35.2748 -35.2724 -35.2706 -15.2765 -15.2702 -15.2425
    10.4951  14.0265  14.0436  16.5616  16.6235  16.7909  18.8774  19.0086
    20.4103  20.4352

          k = 0.0000 0.0909 0.1818 (  3978 PWs)   bands (ev):

   -69.2090 -39.1414 -35.2811 -35.2723 -35.2696 -15.3509 -15.2676 -15.2376
    10.9856  14.2440  14.2906  16.4813  16.5732  16.9084  18.6426  19.0871
    19.8666  19.9000

          k = 0.0000 0.0909 0.2727 (  3995 PWs)   bands (ev):

   -69.2080 -39.1335 -35.2900 -35.2716 -35.2682 -15.4506 -15.2606 -15.2312
    11.7434  14.5128  14.6445  16.4377  16.5167  16.9935  18.2447  19.0577
    19.3653  19.4001

          k = 0.0000 0.0909 0.3636 (  3991 PWs)   bands (ev):

   -69.2071 -39.1262 -35.2982 -35.2708 -35.2670 -15.5411 -15.2541 -15.2253
    12.6707  14.6170  15.0808  16.4435  16.4656  16.9997  17.7899  18.6459
    19.0664  19.2132

          k = 0.0000 0.0909 0.4545 (  3999 PWs)   bands (ev):

   -69.2066 -39.1219 -35.3030 -35.2704 -35.2663 -15.5944 -15.2503 -15.2217
    13.5943  14.3519  15.4692  16.3968  16.4805  16.9451  17.4633  18.3527
    18.9323  19.0197

          k = 0.0000 0.1818 0.1818 (  3972 PWs)   bands (ev):

   -69.2082 -39.1345 -35.2840 -35.2772 -35.2686 -15.3519 -15.3343 -15.2321
    11.4401  14.3900  14.5687  16.3070  16.4778  16.9857  18.6948  19.0458
    19.3496  19.5758

          k = 0.0000 0.1818 0.2727 (  4003 PWs)   bands (ev):

   -69.2073 -39.1253 -35.2920 -35.2794 -35.2673 -15.4413 -15.3326 -15.2250
    12.1275  14.5565  14.9462  16.1858  16.3868  16.9101  18.5208  18.8014
    19.2048  19.3971

          k = 0.0000 0.1818 0.3636 (  3997 PWs)   bands (ev):

   -69.2064 -39.1169 -35.3004 -35.2802 -35.2661 -15.5291 -15.3242 -15.2184
    12.9354  14.5943  15.3322  16.1499  16.3572  16.7002  18.2182  18.4617
    19.3302  19.4170

          k = 0.0000 0.1818 0.4545 (  3990 PWs)   bands (ev):

   -69.2059 -39.1119 -35.3055 -35.2806 -35.2654 -15.5809 -15.3192 -15.2144
    13.6841  14.3630  15.6125  16.2009  16.3901  16.4819  18.0480  18.2166
    19.3519  19.5140

          k = 0.0000 0.2727 0.2727 (  4000 PWs)   bands (ev):

   -69.2063 -39.1146 -35.2961 -35.2880 -35.2661 -15.4378 -15.4172 -15.2168
    12.6688  14.5348  15.3963  15.9775  16.3399  16.6425  18.5788  18.7502
    19.1052  19.5703

          k = 0.0000 0.2727 0.3636 (  3993 PWs)   bands (ev):

   -69.2054 -39.1047 -35.3035 -35.2923 -35.2649 -15.5135 -15.4149 -15.2093
    13.2265  14.4165  15.8407  15.8678  16.3180  16.4951  18.3958  18.7291
    19.2748  19.8464

          k = 0.0000 0.2727 0.4545 (  3996 PWs)   bands (ev):

   -69.2049 -39.0988 -35.3088 -35.2939 -35.2643 -15.5633 -15.4084 -15.2048
    13.6460  14.2282  15.8808  16.0550  16.0845  16.8466  18.1510  18.6844
    19.4869  20.0941

          k = 0.0000 0.3636 0.3636 (  4002 PWs)   bands (ev):

   -69.2046 -39.0934 -35.3073 -35.3025 -35.2639 -15.5042 -15.4923 -15.2009
    13.4198  14.2078  15.6811  15.9708  16.4456  16.8939  18.5222  19.0880
    19.1103  20.2512

          k = 0.0000 0.3636 0.4545 (  3999 PWs)   bands (ev):

   -69.2040 -39.0867 -35.3119 -35.3061 -35.2632 -15.5470 -15.4894 -15.1960
    13.5038  14.0682  15.6293  15.7309  16.8140  17.5390  18.2827  19.1482
    19.3229  20.5544

          k = 0.0000 0.4545 0.4545 (  3998 PWs)   bands (ev):

   -69.2035 -39.0794 -35.3139 -35.3132 -35.2626 -15.5381 -15.5364 -15.1907
    13.3945  13.9723  15.5084  15.5425  17.5106  17.9878  18.6669  18.8520
    19.4119  20.8261

          k = 0.0909 0.0909 0.0909 (  3959 PWs)   bands (ev):

   -69.2094 -39.1451 -35.2744 -35.2744 -35.2711 -15.2769 -15.2684 -15.2684
    10.6615  14.1185  14.1185  16.5391  16.5391  16.8681  18.9294  18.9294
    19.9928  20.6651

          k = 0.0909 0.0909 0.1818 (  3966 PWs)   bands (ev):

   -69.2087 -39.1388 -35.2813 -35.2733 -35.2710 -15.3483 -15.2672 -15.2636
    11.1426  14.3361  14.3554  16.4286  16.4796  16.9503  18.7011  19.0492
    19.5188  20.0788

          k = 0.0909 0.0909 0.2727 (  3992 PWs)   bands (ev):

   -69.2077 -39.1304 -35.2905 -35.2719 -35.2707 -15.4471 -15.2591 -15.2574
    11.8826  14.6168  14.6736  16.3700  16.3987  16.9454  18.3564  19.0005
    19.3236  19.4428

          k = 0.0909 0.0909 0.3636 (  3994 PWs)   bands (ev):

   -69.2068 -39.1228 -35.2988 -35.2707 -35.2704 -15.5368 -15.2516 -15.2516
    12.7810  14.7008  15.0813  16.2989  16.4005  16.8595  17.9712  18.7163
    18.9368  19.4202

          k = 0.0909 0.0909 0.4545 (  4007 PWs)   bands (ev):

   -69.2063 -39.1183 -35.3038 -35.2702 -35.2699 -15.5896 -15.2481 -15.2471
    13.6656  14.4197  15.4383  16.1745  16.5156  16.7699  17.6949  18.4315
    18.6597  19.5237

          k = 0.0909 0.1818 0.1818 (  3984 PWs)   bands (ev):

   -69.2080 -39.1316 -35.2836 -35.2780 -35.2712 -15.3487 -15.3325 -15.2595
    11.5926  14.4938  14.6188  16.2700  16.3702  16.9131  18.7644  19.0172
    19.2358  19.7948

          k = 0.0909 0.1818 0.2727 (  3994 PWs)   bands (ev):

   -69.2070 -39.1222 -35.2919 -35.2795 -35.2705 -15.4380 -15.3301 -15.2518
    12.2705  14.6756  14.9647  16.1421  16.2715  16.7315  18.6109  18.9228
    19.2407  19.4559

          k = 0.0909 0.1818 0.3636 (  4001 PWs)   bands (ev):

   -69.2061 -39.1136 -35.3007 -35.2800 -35.2697 -15.5253 -15.3217 -15.2447
    13.0616  14.7215  15.2859  16.0686  16.2634  16.5479  18.3724  18.5771
    19.1012  19.7199

          k = 0.0909 0.1818 0.4545 (  3993 PWs)   bands (ev):

   -69.2056 -39.1084 -35.3060 -35.2802 -35.2692 -15.5768 -15.3167 -15.2405
    13.7875  14.4740  15.5175  16.0018  16.3647  16.4909  18.1991  18.2872
    18.8991  20.1084

          k = 0.0909 0.2727 0.2727 (  3989 PWs)   bands (ev):

   -69.2061 -39.1114 -35.2957 -35.2883 -35.2695 -15.4340 -15.4153 -15.2435
    12.8158  14.6587  15.4058  15.9390  16.2101  16.4306  18.6963  18.9063
    19.0873  19.7047

          k = 0.0909 0.2727 0.3636 (  3985 PWs)   bands (ev):

   -69.2052 -39.1015 -35.3033 -35.2922 -35.2686 -15.5103 -15.4125 -15.2357
    13.3703  14.5419  15.7742  15.8302  16.2030  16.3600  18.4780  18.8193
    19.1582  20.1172

          k = 0.0909 0.2727 0.4545 (  4006 PWs)   bands (ev):

   -69.2046 -39.0955 -35.3089 -35.2935 -35.2680 -15.5600 -15.4061 -15.2311
    13.7756  14.3545  15.7972  15.8477  16.1550  16.7541  18.1884  18.7887
    19.0873  20.6002

          k = 0.0909 0.3636 0.3636 (  3992 PWs)   bands (ev):

   -69.2043 -39.0903 -35.3068 -35.3024 -35.2675 -15.5011 -15.4904 -15.2274
    13.5656  14.3325  15.6506  15.8817  16.4032  16.7209  18.4860  18.9868
    19.1887  20.5636

          k = 0.0909 0.3636 0.4545 (  4002 PWs)   bands (ev):

   -69.2038 -39.0836 -35.3116 -35.3057 -35.2669 -15.5446 -15.4873 -15.2224
    13.6401  14.1966  15.5970  15.6797  16.7391  17.3611  18.2404  18.9494
    19.2815  20.7958

          k = 0.0909 0.4545 0.4545 (  3993 PWs)   bands (ev):

   -69.2033 -39.0765 -35.3134 -35.3128 -35.2662 -15.5360 -15.5345 -15.2173
    13.5314  14.1009  15.4860  15.5157  17.4523  17.8446  18.4160  18.5135
    19.4899  21.0193

          k = 0.1818 0.1818 0.1818 (  3989 PWs)   bands (ev):

   -69.2072 -39.1239 -35.2825 -35.2825 -35.2757 -15.3447 -15.3275 -15.3275
    12.0266  14.7610  14.7610  16.1712  16.1712  16.6504  18.9328  18.9328
    19.2929  20.0374

          k = 0.1818 0.1818 0.2727 (  3992 PWs)   bands (ev):

   -69.2063 -39.1139 -35.2921 -35.2810 -35.2777 -15.4292 -15.3259 -15.3210
    12.6697  14.9702  15.0333  16.0341  16.0388  16.3368  18.8049  19.0078
    19.4273  19.5988

          k = 0.1818 0.1818 0.3636 (  3994 PWs)   bands (ev):

   -69.2054 -39.1046 -35.3016 -35.2796 -35.2790 -15.5151 -15.3151 -15.3150
    13.3929  15.0074  15.2036  15.8991  16.0682  16.2649  18.6704  18.7433
    18.9523  20.1600

          k = 0.1818 0.1818 0.4545 (  3986 PWs)   bands (ev):

   -69.2049 -39.0991 -35.3073 -35.2797 -35.2788 -15.5658 -15.3114 -15.3085
    14.0172  14.6821  15.3921  15.7788  16.1845  16.4450  18.3322  18.5953
    18.6806  20.5298

          k = 0.1818 0.2727 0.2727 (  3994 PWs)   bands (ev):

   -69.2053 -39.1029 -35.2944 -35.2893 -35.2787 -15.4238 -15.4102 -15.3144
    13.2274  14.9964  15.4273  15.8397  15.9189  15.9976  18.8252  19.0096
    19.3284  20.0777

          k = 0.1818 0.2727 0.3636 (  3988 PWs)   bands (ev):

   -69.2045 -39.0928 -35.3031 -35.2918 -35.2783 -15.5017 -15.4060 -15.3061
    13.7701  14.8706  15.5749  15.7253  15.9737  16.0870  18.5905  18.8382
    19.2207  20.3803

          k = 0.1818 0.2727 0.4545 (  3991 PWs)   bands (ev):

   -69.2039 -39.0868 -35.3091 -35.2925 -35.2779 -15.5513 -15.4000 -15.3011
    14.1253  14.6660  15.5488  15.6706  16.0602  16.5356  18.2319  18.6757
    19.1297  20.6014

          k = 0.1818 0.3636 0.3636 (  3990 PWs)   bands (ev):

   -69.2036 -39.0819 -35.3055 -35.3022 -35.2773 -15.4929 -15.4852 -15.2979
    13.9820  14.6576  15.5747  15.6896  16.2719  16.2956  18.4622  18.6969
    19.4850  20.5435

          k = 0.1818 0.3636 0.4545 (  3993 PWs)   bands (ev):

   -69.2031 -39.0754 -35.3108 -35.3045 -35.2767 -15.5379 -15.4817 -15.2930
    14.0272  14.5323  15.5200  15.5675  16.4915  16.9250  18.1794  18.5402
    19.5616  20.7853

          k = 0.1818 0.4545 0.4545 (  4002 PWs)   bands (ev):

   -69.2026 -39.0686 -35.3120 -35.3116 -35.2760 -15.5305 -15.5294 -15.2882
    13.9234  14.4434  15.4329  15.4545  17.1746  17.2811  18.0690  18.2503
    19.7506  21.0765

          k = 0.2727 0.2727 0.2727 (  3998 PWs)   bands (ev):

   -69.2044 -39.0917 -35.2928 -35.2928 -35.2886 -15.4134 -15.4035 -15.4035
    13.7990  15.4441  15.4441  15.5182  15.7193  15.7193  18.8337  18.8337
    19.7983  19.7983

          k = 0.2727 0.2727 0.3636 (  3992 PWs)   bands (ev):

   -69.2035 -39.0814 -35.3030 -35.2913 -35.2908 -15.4906 -15.3975 -15.3973
    14.2965  15.1356  15.4426  15.6207  15.7209  15.9354  18.5785  18.6239
    19.6455  20.2947

          k = 0.2727 0.2727 0.4545 (  3990 PWs)   bands (ev):

   -69.2030 -39.0752 -35.3095 -35.2915 -35.2904 -15.5398 -15.3936 -15.3902
    14.5097  14.9115  15.4302  15.5701  15.9004  16.3710  18.1751  18.4970
    19.5914  20.6352

          k = 0.2727 0.3636 0.3636 (  3988 PWs)   bands (ev):

   -69.2027 -39.0709 -35.3037 -35.3021 -35.2902 -15.4822 -15.4785 -15.3893
    14.5957  15.0027  15.4917  15.5872  15.8170  16.0595  18.4143  18.4173
    19.9496  20.4946

          k = 0.2727 0.3636 0.4545 (  3992 PWs)   bands (ev):

   -69.2021 -39.0646 -35.3099 -35.3030 -35.2896 -15.5292 -15.4743 -15.3844
    14.5794  14.9171  15.4521  15.5076  16.1032  16.4659  18.0772  18.3312
    20.0120  20.8206

          k = 0.2727 0.4545 0.4545 (  4000 PWs)   bands (ev):

   -69.2016 -39.0583 -35.3102 -35.3100 -35.2888 -15.5232 -15.5227 -15.3800
    14.5067  14.8769  15.3854  15.4135  16.6254  16.6525  17.9060  18.1706
    20.1897  21.1136

          k = 0.3636 0.3636 0.3636 (  3999 PWs)   bands (ev):

   -69.2018 -39.0607 -35.3021 -35.3021 -35.3018 -15.4725 -15.4722 -15.4722
    14.9948  15.3300  15.4470  15.4470  15.8145  15.8145  18.2411  18.2411
    20.5002  20.5002

          k = 0.3636 0.3636 0.4545 (  4008 PWs)   bands (ev):

   -69.2013 -39.0547 -35.3090 -35.3018 -35.3011 -15.5212 -15.4685 -15.4665
    14.9931  15.1653  15.4767  15.6074  15.7984  16.1604  17.9824  18.1639
    20.5129  20.9126

          k = 0.3636 0.4545 0.4545 (  3994 PWs)   bands (ev):

   -69.2008 -39.0488 -35.3085 -35.3085 -35.3006 -15.5165 -15.5165 -15.4635
    15.1008  15.2495  15.3888  15.4963  16.0924  16.1437  17.8651  18.0301
    20.7353  21.1430

          k = 0.4545 0.4545 0.4545 (  3972 PWs)   bands (ev):

   -69.2003 -39.0431 -35.3076 -35.3075 -35.3075 -15.5128 -15.5128 -15.5124
    15.3317  15.4752  15.4752  15.7775  15.7775  15.8004  17.8552  17.8552
    21.1597  21.1597

     the Fermi energy is    17.5936 ev

!    total energy              =    -448.58655249 Ry
     estimated scf accuracy    <          7.2E-10 Ry
     smearing contrib. (-TS)   =       0.00005038 Ry
     internal energy E=F+TS    =    -448.58660287 Ry

     The total energy is F=E-TS. E is the sum of the following terms:
     one-electron contribution =    -151.34228259 Ry
     hartree contribution      =      91.61721387 Ry
     xc contribution           =     -52.88698661 Ry
     ewald contribution        =    -259.82070277 Ry
     one-center paw contrib.   =     -76.15384478 Ry

     convergence has been achieved in  37 iterations

     negative rho (up, down):  9.642E-04 0.000E+00

     Forces acting on atoms (cartesian axes, Ry/au):

     atom    1 type  1   force =     0.00000000    0.00000000    0.00000000
     atom    2 type  2   force =     0.00000000    0.00000000    0.00000000

     Total force =     0.000000     Total SCF correction =     0.000000


     Computing stress (Cartesian axis) and pressure


     negative rho (up, down):  9.642E-04 0.000E+00
          total   stress  (Ry/bohr**3)                   (kbar)     P=       31.49
   0.00021405   0.00000000   0.00000000           31.49        0.00        0.00
   0.00000000   0.00021405   0.00000000            0.00       31.49        0.00
   0.00000000   0.00000000   0.00021405            0.00        0.00       31.49


     BFGS Geometry Optimization
     Energy error            =      8.8E-03 Ry
     Gradient error          =      0.0E+00 Ry/Bohr
     Cell gradient error     =      1.2E+02 kbar

     number of scf cycles    =   1
     number of bfgs steps    =   0

     enthalpy           new  =    -448.6943516828 Ry

     new trust radius        =       0.0551926202 bohr
     new conv_thr            =       0.0000000100 Ry

     new unit-cell volume =    182.32336 a.u.^3 (    27.01753 Ang^3 )
     density =      6.37430 g/cm^3

CELL_PARAMETERS (alat=  5.55330037)
   1.021087460   0.000000000   0.000000000
   0.000000000   1.021087460   0.000000000
   0.000000000   0.000000000   1.021087460

ATOMIC_POSITIONS (crystal)
Fe               0.5000000000        0.5000000000        0.5000000000
Ti               0.0000000000        0.0000000000        0.0000000000



     Writing config-only to output data dir ./TiFe.save/ :
     XML data file
     NEW-OLD atomic charge density approx. for the potential
     New effective cutoffs (rho, wfc): 1664.91  118.93

     negative rho (up, down):  1.017E-03 0.000E+00

     total cpu time spent up to now is       39.6 secs

     per-process dynamical memory:   153.1 Mb

     Self-consistent Calculation

     iteration #  1     ecut=   124.00 Ry     beta= 0.70
     Davidson diagonalization with overlap
     ethr =  1.00E-06,  avg # of iterations =  8.2

     negative rho (up, down):  9.850E-04 0.000E+00

     total cpu time spent up to now is       41.4 secs

     WARNING: integrated charge=    28.00118922, expected=    28.00000000

     total energy              =    -448.58064830 Ry
     estimated scf accuracy    <       0.00168542 Ry

     iteration #  2     ecut=   124.00 Ry     beta= 0.70
     Davidson diagonalization with overlap
     ethr =  6.02E-06,  avg # of iterations =  5.2

     negative rho (up, down):  9.644E-04 0.000E+00

     total cpu time spent up to now is       42.7 secs

     WARNING: integrated charge=    28.00112301, expected=    28.00000000

     total energy              =    -448.57486353 Ry
     estimated scf accuracy    <       0.18020969 Ry

     iteration #  3     ecut=   124.00 Ry     beta= 0.70
     Davidson diagonalization with overlap
     ethr =  6.02E-06,  avg # of iterations =  4.8

     negative rho (up, down):  9.750E-04 0.000E+00

     total cpu time spent up to now is       43.9 secs

     WARNING: integrated charge=    28.00074902, expected=    28.00000000

     total energy              =    -448.58427443 Ry
     estimated scf accuracy    <       0.00077002 Ry

     iteration #  4     ecut=   124.00 Ry     beta= 0.70
     Davidson diagonalization with overlap
     ethr =  2.75E-06,  avg # of iterations =  2.0

     negative rho (up, down):  9.763E-04 0.000E+00

     total cpu time spent up to now is       44.8 secs

     WARNING: integrated charge=    28.00077851, expected=    28.00000000

     total energy              =    -448.58355284 Ry
     estimated scf accuracy    <       0.00006752 Ry

     iteration #  5     ecut=   124.00 Ry     beta= 0.70
     Davidson diagonalization with overlap
     ethr =  2.41E-07,  avg # of iterations =  4.1

     negative rho (up, down):  9.727E-04 0.000E+00

     total cpu time spent up to now is       46.0 secs

     WARNING: integrated charge=    28.00107026, expected=    28.00000000

     total energy              =    -448.58285479 Ry
     estimated scf accuracy    <       0.00001171 Ry

     iteration #  6     ecut=   124.00 Ry     beta= 0.70
     Davidson diagonalization with overlap
     ethr =  4.18E-08,  avg # of iterations =  3.6

     negative rho (up, down):  9.719E-04 0.000E+00

     total cpu time spent up to now is       47.1 secs

     WARNING: integrated charge=    28.00089225, expected=    28.00000000

     total energy              =    -448.58331825 Ry
     estimated scf accuracy    <       0.00000160 Ry

     iteration #  7     ecut=   124.00 Ry     beta= 0.70
     Davidson diagonalization with overlap
     ethr =  5.72E-09,  avg # of iterations =  3.5

     negative rho (up, down):  9.724E-04 0.000E+00

     total cpu time spent up to now is       48.1 secs

     WARNING: integrated charge=    28.00095943, expected=    28.00000000

     total energy              =    -448.58332284 Ry
     estimated scf accuracy    <       0.00000059 Ry

     iteration #  8     ecut=   124.00 Ry     beta= 0.70
     Davidson diagonalization with overlap
     ethr =  2.11E-09,  avg # of iterations =  2.3

     negative rho (up, down):  9.725E-04 0.000E+00

     total cpu time spent up to now is       49.1 secs

     WARNING: integrated charge=    28.00096099, expected=    28.00000000

     total energy              =    -448.58325296 Ry
     estimated scf accuracy    <       0.00000007 Ry

     iteration #  9     ecut=   124.00 Ry     beta= 0.70
     Davidson diagonalization with overlap
     ethr =  2.67E-10,  avg # of iterations =  4.0

     negative rho (up, down):  9.724E-04 0.000E+00

     total cpu time spent up to now is       50.2 secs

     WARNING: integrated charge=    28.00096371, expected=    28.00000000

     total energy              =    -448.58322477 Ry
     estimated scf accuracy    <       0.00000002 Ry

     iteration # 10     ecut=   124.00 Ry     beta= 0.70
     Davidson diagonalization with overlap
     ethr =  7.91E-11,  avg # of iterations =  2.1

     negative rho (up, down):  9.724E-04 0.000E+00

     total cpu time spent up to now is       51.1 secs

     End of self-consistent calculation

          k = 0.0000 0.0000 0.0000 (  3911 PWs)   bands (ev):

   -70.4135 -40.5213 -36.4722 -36.4722 -36.4722 -16.6313 -16.6313 -16.6313
     9.1118  12.9398  12.9398  15.4882  15.4882  15.4882  17.6581  17.6581
    19.4358  19.4358

          k = 0.0000 0.0000 0.0890 (  3947 PWs)   bands (ev):

   -70.4133 -40.5195 -36.4744 -36.4720 -36.4720 -16.6546 -16.6298 -16.6298
     9.2751  13.0173  13.0179  15.4761  15.4761  15.5230  17.5634  17.6931
    19.2080  19.2080

          k = 0.0000 0.0000 0.1781 (  3964 PWs)   bands (ev):

   -70.4127 -40.5148 -36.4801 -36.4712 -36.4712 -16.7169 -16.6259 -16.6259
     9.7503  13.2179  13.2439  15.4483  15.4483  15.6206  17.2892  17.7698
    18.6759  18.6759

          k = 0.0000 0.0000 0.2671 (  3988 PWs)   bands (ev):

   -70.4120 -40.5086 -36.4875 -36.4702 -36.4702 -16.7976 -16.6207 -16.6207
    10.4927  13.4347  13.5998  15.4232  15.4232  15.7590  16.8682  17.7860
    18.0854  18.0854

          k = 0.0000 0.0000 0.3561 (  4008 PWs)   bands (ev):

   -70.4114 -40.5029 -36.4943 -36.4693 -36.4693 -16.8710 -16.6159 -16.6159
    11.4190  13.4888  14.0387  15.4156  15.4156  15.8996  16.3665  17.5850
    17.6021  17.6021

          k = 0.0000 0.0000 0.4452 (  3992 PWs)   bands (ev):

   -70.4110 -40.4995 -36.4983 -36.4688 -36.4688 -16.9142 -16.6131 -16.6131
    12.3736  13.1718  14.4294  15.4211  15.4211  15.9373  15.9910  17.2805
    17.3294  17.3294

          k = 0.0000 0.0890 0.0890 (  3966 PWs)   bands (ev):

   -70.4131 -40.5177 -36.4749 -36.4735 -36.4717 -16.6552 -16.6507 -16.6283
     9.4354  13.0885  13.0993  15.4019  15.4569  15.6096  17.5494  17.6667
    18.9582  18.9794

          k = 0.0000 0.0890 0.1781 (  3978 PWs)   bands (ev):

   -70.4125 -40.5128 -36.4803 -36.4734 -36.4710 -16.7149 -16.6483 -16.6242
     9.9012  13.2824  13.3214  15.3285  15.4095  15.7160  17.3384  17.7336
    18.4591  18.4932

          k = 0.0000 0.0890 0.2671 (  3995 PWs)   bands (ev):

   -70.4118 -40.5063 -36.4878 -36.4727 -36.4700 -16.7948 -16.6425 -16.6188
    10.6261  13.4982  13.6546  15.2874  15.3555  15.7934  16.9801  17.6947
    17.9974  18.0361

          k = 0.0000 0.0890 0.3561 (  3991 PWs)   bands (ev):

   -70.4112 -40.5003 -36.4947 -36.4721 -36.4691 -16.8675 -16.6372 -16.6139
    11.5240  13.5421  14.0620  15.2897  15.3070  15.8010  16.5679  17.3158
    17.7294  17.8351

          k = 0.0000 0.0890 0.4452 (  3999 PWs)   bands (ev):

   -70.4108 -40.4968 -36.4988 -36.4717 -36.4685 -16.9104 -16.6340 -16.6110
    12.4386  13.2236  14.4208  15.2455  15.3195  15.7551  16.2682  17.0382
    17.6047  17.6475

          k = 0.0000 0.1781 0.1781 (  3972 PWs)   bands (ev):

   -70.4120 -40.5073 -36.4820 -36.4778 -36.4702 -16.7151 -16.7025 -16.6197
    10.3364  13.4165  13.5674  15.1704  15.3195  15.7841  17.3837  17.6973
    17.9821  18.1987

          k = 0.0000 0.1781 0.2671 (  4003 PWs)   bands (ev):

   -70.4113 -40.5001 -36.4888 -36.4792 -36.4693 -16.7876 -16.7005 -16.6138
    11.0016  13.5546  13.9076  15.0596  15.2309  15.7151  17.2296  17.4660
    17.8419  18.0343

          k = 0.0000 0.1781 0.3561 (  3997 PWs)   bands (ev):

   -70.4107 -40.4934 -36.4959 -36.4794 -36.4684 -16.8583 -16.6938 -16.6084
    11.7982  13.5477  14.2635  15.0253  15.1969  15.5261  16.9548  17.1473
    17.9432  18.0492

          k = 0.0000 0.1781 0.4452 (  3990 PWs)   bands (ev):

   -70.4103 -40.4895 -36.5002 -36.4795 -36.4679 -16.9002 -16.6898 -16.6052
    12.5605  13.2671  14.5293  15.0683  15.2166  15.3312  16.7953  16.9184
    17.9484  18.1347

          k = 0.0000 0.2671 0.2671 (  4000 PWs)   bands (ev):

   -70.4106 -40.4919 -36.4914 -36.4863 -36.4683 -16.7844 -16.7695 -16.6073
    11.5435  13.5266  14.3113  14.8698  15.1753  15.4719  17.2584  17.4415
    17.7437  18.1905

          k = 0.0000 0.2671 0.3561 (  3993 PWs)   bands (ev):

   -70.4100 -40.4844 -36.4976 -36.4890 -36.4675 -16.8464 -16.7673 -16.6012
    12.1253  13.3923  14.7142  14.7690  15.1775  15.2979  17.0843  17.4186
    17.8918  18.4400

          k = 0.0000 0.2671 0.4452 (  3996 PWs)   bands (ev):

   -70.4096 -40.4799 -36.5021 -36.4898 -36.4670 -16.8867 -16.7621 -16.5976
    12.5895  13.1755  14.7790  14.9350  14.9396  15.6043  16.8497  17.3820
    18.0694  18.6641

          k = 0.0000 0.3561 0.3561 (  4002 PWs)   bands (ev):

   -70.4093 -40.4760 -36.4999 -36.4969 -36.4667 -16.8390 -16.8305 -16.5946
    12.3768  13.1893  14.5984  14.8611  15.2654  15.6411  17.1900  17.7319
    17.7487  18.8081

          k = 0.0000 0.3561 0.4452 (  3999 PWs)   bands (ev):

   -70.4090 -40.4711 -36.5038 -36.4992 -36.4662 -16.8744 -16.8280 -16.5907
    12.5083  13.0428  14.5503  14.6428  15.5981  16.2362  16.9607  17.7919
    17.9238  19.0836

          k = 0.0000 0.4452 0.4452 (  3998 PWs)   bands (ev):

   -70.4086 -40.4658 -36.5050 -36.5046 -36.4657 -16.8676 -16.8664 -16.5865
    12.4297  12.9604  14.4398  14.4707  16.2533  16.6731  17.2925  17.4614
    18.0399  19.3307

          k = 0.0890 0.0890 0.0890 (  3959 PWs)   bands (ev):

   -70.4129 -40.5158 -36.4746 -36.4746 -36.4726 -16.6554 -16.6492 -16.6492
     9.5931  13.1690  13.1690  15.3810  15.3810  15.6783  17.5957  17.5957
    18.5768  19.1889

          k = 0.0890 0.0890 0.1781 (  3966 PWs)   bands (ev):

   -70.4123 -40.5107 -36.4803 -36.4738 -36.4725 -16.7129 -16.6478 -16.6452
    10.0508  13.3716  13.3739  15.2802  15.3257  15.7514  17.3908  17.6997
    18.1431  18.6537

          k = 0.0890 0.0890 0.2671 (  3992 PWs)   bands (ev):

   -70.4116 -40.5040 -36.4880 -36.4728 -36.4721 -16.7921 -16.6413 -16.6399
    10.7603  13.5882  13.6851  15.2246  15.2502  15.7470  17.0807  17.6455
    17.9590  18.0710

          k = 0.0890 0.0890 0.3561 (  3994 PWs)   bands (ev):

   -70.4110 -40.4978 -36.4951 -36.4719 -36.4718 -16.8642 -16.6352 -16.6350
    11.6332  13.6186  14.0626  15.1576  15.2487  15.6719  16.7324  17.3699
    17.6074  18.0366

          k = 0.0890 0.0890 0.4452 (  4007 PWs)   bands (ev):

   -70.4106 -40.4941 -36.4993 -36.4715 -36.4713 -16.9067 -16.6322 -16.6316
    12.5126  13.2910  14.3924  15.0433  15.3485  15.5930  16.4804  17.0936
    17.3541  18.1247

          k = 0.0890 0.1781 0.1781 (  3984 PWs)   bands (ev):

   -70.4118 -40.5051 -36.4817 -36.4781 -36.4725 -16.7126 -16.7009 -16.6417
    10.4817  13.5095  13.6141  15.1362  15.2239  15.7151  17.4459  17.6715
    17.8808  18.3944

          k = 0.0890 0.1781 0.2671 (  3994 PWs)   bands (ev):

   -70.4111 -40.4977 -36.4887 -36.4791 -36.4718 -16.7850 -16.6986 -16.6354
    11.1380  13.6637  13.9242  15.0188  15.1288  15.5507  17.3093  17.5753
    17.8785  18.0841

          k = 0.0890 0.1781 0.3561 (  4001 PWs)   bands (ev):

   -70.4105 -40.4909 -36.4961 -36.4792 -36.4712 -16.8554 -16.6918 -16.6297
    11.9191  13.6629  14.2235  14.9481  15.1157  15.3858  17.0973  17.2488
    17.7433  18.3160

          k = 0.0890 0.1781 0.4452 (  3993 PWs)   bands (ev):

   -70.4101 -40.4869 -36.5005 -36.4792 -36.4708 -16.8970 -16.6877 -16.6262
    12.6595  13.3698  14.4488  14.8786  15.2124  15.3219  16.9270  16.9864
    17.5546  18.6644

          k = 0.0890 0.2671 0.2671 (  3989 PWs)   bands (ev):

   -70.4104 -40.4895 -36.4910 -36.4864 -36.4711 -16.7814 -16.7679 -16.6287
    11.6819  13.6402  14.3204  14.8335  15.0612  15.2768  17.3656  17.5864
    17.7262  18.3079

          k = 0.0890 0.2671 0.3561 (  3985 PWs)   bands (ev):

   -70.4098 -40.4820 -36.4975 -36.4888 -36.4703 -16.8438 -16.7653 -16.6225
    12.2602  13.5077  14.6602  14.7288  15.0665  15.1807  17.1592  17.5004
    17.7900  18.6812

          k = 0.0890 0.2671 0.4452 (  4006 PWs)   bands (ev):

   -70.4094 -40.4775 -36.5021 -36.4895 -36.4699 -16.8841 -16.7603 -16.6188
    12.7116  13.2929  14.7024  14.7380  15.0038  15.5261  16.8824  17.4775
    17.7173  19.1256

          k = 0.0890 0.3561 0.3561 (  3992 PWs)   bands (ev):

   -70.4092 -40.4737 -36.4996 -36.4969 -36.4695 -16.8366 -16.8288 -16.6159
    12.5141  13.3039  14.5693  14.7780  15.2253  15.4847  17.1629  17.6173
    17.8422  19.0890

          k = 0.0890 0.3561 0.4452 (  4002 PWs)   bands (ev):

   -70.4088 -40.4687 -36.5036 -36.4988 -36.4690 -16.8723 -16.8263 -16.6119
    12.6369  13.1615  14.5190  14.5943  15.5254  16.0734  16.9264  17.5787
    17.9256  19.3085

          k = 0.0890 0.4452 0.4452 (  3993 PWs)   bands (ev):

   -70.4084 -40.4635 -36.5047 -36.5043 -36.4685 -16.8658 -16.8647 -16.6079
    12.5584  13.0788  14.4177  14.4444  16.1948  16.5280  17.0813  17.1580
    18.1130  19.5159

          k = 0.1781 0.1781 0.1781 (  3989 PWs)   bands (ev):

   -70.4113 -40.4991 -36.4809 -36.4809 -36.4767 -16.7094 -16.6967 -16.6967
    10.8975  13.7467  13.7467  15.0443  15.0443  15.4727  17.5958  17.5958
    17.9283  18.6154

          k = 0.1781 0.1781 0.2671 (  3992 PWs)   bands (ev):

   -70.4106 -40.4914 -36.4888 -36.4798 -36.4779 -16.7781 -16.6951 -16.6912
    11.5220  13.9418  13.9763  14.9169  14.9202  15.1875  17.4814  17.6507
    18.0571  18.2051

          k = 0.1781 0.1781 0.3561 (  3994 PWs)   bands (ev):

   -70.4100 -40.4842 -36.4965 -36.4788 -36.4785 -16.8474 -16.6867 -16.6861
    12.2425  13.9154  14.1604  14.7874  14.9409  15.1237  17.3618  17.3911
    17.6218  18.7162

          k = 0.1781 0.1781 0.4452 (  3986 PWs)   bands (ev):

   -70.4096 -40.4800 -36.5012 -36.4788 -36.4782 -16.8884 -16.6831 -16.6816
    12.8900  13.5711  14.3410  14.6688  15.0405  15.2750  17.0033  17.2984
    17.3700  19.0655

          k = 0.1781 0.2671 0.2671 (  3994 PWs)   bands (ev):

   -70.4099 -40.4831 -36.4901 -36.4869 -36.4783 -16.7736 -16.7635 -16.6859
    12.0713  13.9499  14.3418  14.7389  14.8056  14.8744  17.4863  17.6522
    17.9733  18.6392

          k = 0.1781 0.2671 0.3561 (  3988 PWs)   bands (ev):

   -70.4093 -40.4754 -36.4972 -36.4884 -36.4778 -16.8370 -16.7600 -16.6792
    12.6363  13.8112  14.4858  14.6279  14.8376  14.9493  17.2622  17.4913
    17.8753  18.9332

          k = 0.1781 0.2671 0.4452 (  3991 PWs)   bands (ev):

   -70.4089 -40.4709 -36.5021 -36.4886 -36.4775 -16.8772 -16.7552 -16.6752
    13.0426  13.5855  14.4761  14.5679  14.9059  15.3396  16.9180  17.3468
    17.7936  19.1322

          k = 0.1781 0.3561 0.3561 (  3990 PWs)   bands (ev):

   -70.4086 -40.4674 -36.4986 -36.4966 -36.4771 -16.8301 -16.8244 -16.6726
    12.9065  13.6042  14.4961  14.5966  15.1025  15.1033  17.1455  17.3518
    18.1157  19.0839

          k = 0.1781 0.3561 0.4452 (  3993 PWs)   bands (ev):

   -70.4083 -40.4625 -36.5030 -36.4979 -36.4766 -16.8668 -16.8215 -16.6687
    13.0027  13.4733  14.4442  14.4853  15.2888  15.6820  16.8718  17.2129
    18.1848  19.3033

          k = 0.1781 0.4452 0.4452 (  4002 PWs)   bands (ev):

   -70.4079 -40.4575 -36.5037 -36.5034 -36.4761 -16.8610 -16.8603 -16.6648
    12.9272  13.3951  14.3643  14.3831  15.9251  16.0053  16.7677  16.9419
    18.3543  19.5714

          k = 0.2671 0.2671 0.2671 (  3998 PWs)   bands (ev):

   -70.4092 -40.4747 -36.4889 -36.4889 -36.4864 -16.7656 -16.7578 -16.7578
    12.6222  14.3616  14.3616  14.4315  14.6213  14.6213  17.4892  17.4892
    18.4045  18.4045

          k = 0.2671 0.2671 0.3561 (  3992 PWs)   bands (ev):

   -70.4086 -40.4669 -36.4970 -36.4878 -36.4876 -16.8282 -16.7533 -16.7526
    13.1419  14.0614  14.3694  14.5189  14.6089  14.8071  17.2455  17.2982
    18.2659  18.8570

          k = 0.2671 0.2671 0.4452 (  3990 PWs)   bands (ev):

   -70.4082 -40.4623 -36.5022 -36.4879 -36.4872 -16.8680 -16.7494 -16.7476
    13.4214  13.8275  14.3685  14.4605  14.7485  15.1944  16.8663  17.1831
    18.2168  19.1649

          k = 0.2671 0.3561 0.3561 (  3988 PWs)   bands (ev):

   -70.4080 -40.4591 -36.4973 -36.4963 -36.4870 -16.8215 -16.8185 -16.7463
    13.4879  13.9281  14.4140  14.4847  14.6804  14.9071  17.0983  17.1012
    18.5426  19.0410

          k = 0.2671 0.3561 0.4452 (  3992 PWs)   bands (ev):

   -70.4076 -40.4544 -36.5022 -36.4968 -36.4865 -16.8596 -16.8152 -16.7424
    13.5291  13.8370  14.3761  14.4136  14.9261  15.2726  16.7805  17.0247
    18.5993  19.3369

          k = 0.2671 0.4452 0.4452 (  4000 PWs)   bands (ev):

   -70.4072 -40.4497 -36.5023 -36.5022 -36.4860 -16.8548 -16.8544 -16.7387
    13.4772  13.7977  14.3128  14.3351  15.4098  15.4427  16.6266  16.8709
    18.7593  19.6055

          k = 0.3561 0.3561 0.3561 (  3999 PWs)   bands (ev):

   -70.4073 -40.4514 -36.4962 -36.4962 -36.4960 -16.8139 -16.8132 -16.8132
    13.9405  14.1516  14.3642  14.3642  14.6866  14.6866  16.9390  16.9390
    19.0464  19.0464

          k = 0.3561 0.3561 0.4452 (  4008 PWs)   bands (ev):

   -70.4070 -40.4469 -36.5015 -36.4959 -36.4955 -16.8530 -16.8100 -16.8090
    13.9405  14.0773  14.3767  14.5091  14.6315  15.0008  16.6967  16.8691
    19.0580  19.4215

          k = 0.3561 0.4452 0.4452 (  3994 PWs)   bands (ev):

   -70.4066 -40.4424 -36.5011 -36.5011 -36.4950 -16.8491 -16.8490 -16.8060
    14.0403  14.1520  14.3044  14.3907  14.9297  14.9835  16.5904  16.7429
    19.2599  19.6320

          k = 0.4452 0.4452 0.4452 (  3972 PWs)   bands (ev):

   -70.4062 -40.4381 -36.5005 -36.5004 -36.5004 -16.8458 -16.8458 -16.8456
    14.2429  14.3642  14.3642  14.6645  14.6654  14.6654  16.5815  16.5815
    19.6470  19.6470

     the Fermi energy is    16.3851 ev

     WARNING: integrated charge=    28.00096256, expected=    28.00000000

!    total energy              =    -448.58323670 Ry
     estimated scf accuracy    <          1.2E-09 Ry
     smearing contrib. (-TS)   =       0.00004132 Ry
     internal energy E=F+TS    =    -448.58327802 Ry

     The total energy is F=E-TS. E is the sum of the following terms:
     one-electron contribution =    -159.64859417 Ry
     hartree contribution      =      94.45605191 Ry
     xc contribution           =     -52.78344659 Ry
     ewald contribution        =    -254.45489536 Ry
     one-center paw contrib.   =     -76.15239381 Ry

     convergence has been achieved in  10 iterations

     negative rho (up, down):  9.724E-04 0.000E+00

     Forces acting on atoms (cartesian axes, Ry/au):

     atom    1 type  1   force =     0.00000000    0.00000000    0.00000000
     atom    2 type  2   force =     0.00000000    0.00000000    0.00000000

     Total force =     0.000000     Total SCF correction =     0.000000


     Computing stress (Cartesian axis) and pressure


     negative rho (up, down):  9.724E-04 0.000E+00
          total   stress  (Ry/bohr**3)                   (kbar)     P=      -81.79
  -0.00055600   0.00000000   0.00000000          -81.79        0.00        0.00
   0.00000000  -0.00055600   0.00000000            0.00      -81.79        0.00
   0.00000000   0.00000000  -0.00055600            0.00        0.00      -81.79

     Energy error            =      3.6E-03 Ry
     Gradient error          =      0.0E+00 Ry/Bohr
     Cell gradient error     =      1.1E+01 kbar

     number of scf cycles    =   2
     number of bfgs steps    =   1

     enthalpy           old  =    -448.6943516828 Ry
     enthalpy           new  =    -448.6980003450 Ry

     CASE: enthalpy          _new < enthalpy          _old

     new trust radius        =       0.0055693382 bohr
     new conv_thr            =            1.0E-10 Ry

     new unit-cell volume =    183.45371 a.u.^3 (    27.18503 Ang^3 )
     density =      6.33502 g/cm^3

CELL_PARAMETERS (alat=  5.55330037)
   1.023193251   0.000000000   0.000000000
   0.000000000   1.023193251   0.000000000
   0.000000000   0.000000000   1.023193251

ATOMIC_POSITIONS (crystal)
Fe               0.5000000000        0.5000000000        0.5000000000
Ti               0.0000000000        0.0000000000        0.0000000000



     Writing config-only to output data dir ./TiFe.save/ :
     XML data file
     NEW-OLD atomic charge density approx. for the potential
     New effective cutoffs (rho, wfc): 1658.07  118.44

     negative rho (up, down):  9.734E-04 0.000E+00
     extrapolated charge   28.00096, renormalised to   28.00000

     total cpu time spent up to now is       53.1 secs

     per-process dynamical memory:   153.3 Mb

     Self-consistent Calculation

     iteration #  1     ecut=   124.00 Ry     beta= 0.70
     Davidson diagonalization with overlap
     ethr =  1.00E-06,  avg # of iterations =  3.0

     Threshold (ethr) on eigenvalues was too large:
     Diagonalizing with lowered threshold

     Davidson diagonalization with overlap
     ethr =  4.92E-08,  avg # of iterations =  4.2

     negative rho (up, down):  9.744E-04 0.000E+00

     total cpu time spent up to now is       55.2 secs

     total energy              =    -448.58369139 Ry
     estimated scf accuracy    <       0.00001983 Ry

     iteration #  2     ecut=   124.00 Ry     beta= 0.70
     Davidson diagonalization with overlap
     ethr =  7.08E-08,  avg # of iterations =  4.8

     negative rho (up, down):  9.727E-04 0.000E+00

     total cpu time spent up to now is       56.4 secs

     WARNING: integrated charge=    28.00013337, expected=    28.00000000

     total energy              =    -448.58095295 Ry
     estimated scf accuracy    <       0.00197915 Ry

     iteration #  3     ecut=   124.00 Ry     beta= 0.70
     Davidson diagonalization with overlap
     ethr =  7.08E-08,  avg # of iterations =  4.9

     negative rho (up, down):  9.735E-04 0.000E+00

     total cpu time spent up to now is       57.5 secs

     WARNING: integrated charge=    28.00017242, expected=    28.00000000

     total energy              =    -448.58371825 Ry
     estimated scf accuracy    <       0.00002636 Ry

     iteration #  4     ecut=   124.00 Ry     beta= 0.70
     Davidson diagonalization with overlap
     ethr =  7.08E-08,  avg # of iterations =  1.0

     negative rho (up, down):  9.735E-04 0.000E+00

     total cpu time spent up to now is       58.4 secs

     WARNING: integrated charge=    28.00011983, expected=    28.00000000

     total energy              =    -448.58371841 Ry
     estimated scf accuracy    <       0.00000629 Ry

     iteration #  5     ecut=   124.00 Ry     beta= 0.70
     Davidson diagonalization with overlap
     ethr =  2.25E-08,  avg # of iterations =  3.0

     negative rho (up, down):  9.735E-04 0.000E+00

     total cpu time spent up to now is       59.3 secs

     WARNING: integrated charge=    28.00003608, expected=    28.00000000

     total energy              =    -448.58371898 Ry
     estimated scf accuracy    <       0.00000018 Ry

     iteration #  6     ecut=   124.00 Ry     beta= 0.70
     Davidson diagonalization with overlap
     ethr =  6.51E-10,  avg # of iterations =  3.9

     negative rho (up, down):  9.734E-04 0.000E+00

     total cpu time spent up to now is       60.4 secs

     WARNING: integrated charge=    28.00003240, expected=    28.00000000

     total energy              =    -448.58371903 Ry
     estimated scf accuracy    <       0.00000008 Ry

     iteration #  7     ecut=   124.00 Ry     beta= 0.70
     Davidson diagonalization with overlap
     ethr =  2.97E-10,  avg # of iterations =  2.5

     negative rho (up, down):  9.734E-04 0.000E+00

     total cpu time spent up to now is       61.3 secs

     total energy              =    -448.58371904 Ry
     estimated scf accuracy    <          2.8E-09 Ry

     iteration #  8     ecut=   124.00 Ry     beta= 0.70
     Davidson diagonalization with overlap
     ethr =  9.85E-12,  avg # of iterations =  5.3

     negative rho (up, down):  9.735E-04 0.000E+00

     total cpu time spent up to now is       62.7 secs

     total energy              =    -448.58371904 Ry
     estimated scf accuracy    <       0.00000006 Ry

     iteration #  9     ecut=   124.00 Ry     beta= 0.70
     Davidson diagonalization with overlap
     ethr =  9.85E-12,  avg # of iterations =  4.4

     negative rho (up, down):  9.735E-04 0.000E+00

     total cpu time spent up to now is       63.8 secs

     total energy              =    -448.58371904 Ry
     estimated scf accuracy    <          1.4E-09 Ry

     iteration # 10     ecut=   124.00 Ry     beta= 0.70
     Davidson diagonalization with overlap
     ethr =  4.87E-12,  avg # of iterations =  1.4

     negative rho (up, down):  9.735E-04 0.000E+00

     total cpu time spent up to now is       64.7 secs

     total energy              =    -448.58371904 Ry
     estimated scf accuracy    <          2.2E-10 Ry

     iteration # 11     ecut=   124.00 Ry     beta= 0.70
     Davidson diagonalization with overlap
     ethr =  7.86E-13,  avg # of iterations =  3.3

     negative rho (up, down):  9.734E-04 0.000E+00

     total cpu time spent up to now is       65.7 secs

     total energy              =    -448.58371904 Ry
     estimated scf accuracy    <          3.0E-10 Ry

     iteration # 12     ecut=   124.00 Ry     beta= 0.70
     Davidson diagonalization with overlap
     ethr =  7.86E-13,  avg # of iterations =  2.0

     negative rho (up, down):  9.734E-04 0.000E+00

     total cpu time spent up to now is       66.7 secs

     End of self-consistent calculation

          k = 0.0000 0.0000 0.0000 (  3911 PWs)   bands (ev):

   -70.5287 -40.6557 -36.5873 -36.5873 -36.5873 -16.7668 -16.7668 -16.7668
     9.0140  12.8509  12.8509  15.3761  15.3761  15.3761  17.5287  17.5287
    19.2903  19.2903

          k = 0.0000 0.0000 0.0888 (  3947 PWs)   bands (ev):

   -70.5286 -40.6539 -36.5894 -36.5870 -36.5870 -16.7896 -16.7653 -16.7653
     9.1764  12.9278  12.9279  15.3641  15.3641  15.4107  17.4351  17.5633
    19.0648  19.0648

          k = 0.0000 0.0000 0.1777 (  3964 PWs)   bands (ev):

   -70.5280 -40.6493 -36.5950 -36.5863 -36.5863 -16.8504 -16.7614 -16.7614
     9.6491  13.1250  13.1529  15.3364  15.3364  15.5075  17.1638  17.6389
    18.5377  18.5377

          k = 0.0000 0.0000 0.2665 (  3988 PWs)   bands (ev):

   -70.5274 -40.6432 -36.6022 -36.5853 -36.5853 -16.9293 -16.7564 -16.7564
    10.3880  13.3373  13.5061  15.3115  15.3115  15.6447  16.7471  17.6538
    17.9525  17.9525

          k = 0.0000 0.0000 0.3554 (  4008 PWs)   bands (ev):

   -70.5267 -40.6376 -36.6089 -36.5844 -36.5844 -17.0011 -16.7517 -16.7517
    11.3109  13.3861  13.9417  15.3038  15.3038  15.7842  16.2503  17.4526
    17.4735  17.4735

          k = 0.0000 0.0000 0.4442 (  3992 PWs)   bands (ev):

   -70.5264 -40.6343 -36.6128 -36.5839 -36.5839 -17.0434 -16.7489 -16.7489
    12.2639  13.0642  14.3293  15.3090  15.3090  15.8252  15.8749  17.1493
    17.2032  17.2032

          k = 0.0000 0.0888 0.0888 (  3966 PWs)   bands (ev):

   -70.5284 -40.6521 -36.5899 -36.5885 -36.5867 -16.7901 -16.7858 -16.7638
     9.3358  12.9982  13.0085  15.2906  15.3451  15.4964  17.4212  17.5372
    18.8174  18.8383

          k = 0.0000 0.0888 0.1777 (  3978 PWs)   bands (ev):

   -70.5278 -40.6473 -36.5951 -36.5884 -36.5860 -16.8485 -16.7833 -16.7598
     9.7993  13.1898  13.2285  15.2179  15.2980  15.6018  17.2124  17.6031
    18.3228  18.3567

          k = 0.0000 0.0888 0.2665 (  3995 PWs)   bands (ev):

   -70.5272 -40.6409 -36.6025 -36.5877 -36.5851 -16.9267 -16.7777 -16.7545
    10.5209  13.4009  13.5597  15.1771  15.2443  15.6787  16.8578  17.5635
    17.8650  17.9037

          k = 0.0000 0.0888 0.3554 (  3991 PWs)   bands (ev):

   -70.5265 -40.6351 -36.6093 -36.5871 -36.5842 -16.9978 -16.7725 -16.7497
    11.4160  13.4395  13.9643  15.1792  15.1961  15.6863  16.4497  17.1876
    17.5997  17.7026

          k = 0.0000 0.0888 0.4442 (  3999 PWs)   bands (ev):

   -70.5262 -40.6317 -36.6133 -36.5867 -36.5837 -17.0397 -16.7693 -16.7468
    12.3294  13.1164  14.3204  15.1351  15.2085  15.6411  16.1525  16.9118
    17.4760  17.5159

          k = 0.0000 0.1777 0.1777 (  3972 PWs)   bands (ev):

   -70.5273 -40.6419 -36.5968 -36.5928 -36.5853 -16.8487 -16.8364 -16.7554
    10.2326  13.3230  13.4714  15.0613  15.2085  15.6693  17.2570  17.5672
    17.8497  18.0649

          k = 0.0000 0.1777 0.2665 (  4003 PWs)   bands (ev):

   -70.5267 -40.6349 -36.6034 -36.5941 -36.5844 -16.9196 -16.8345 -16.7496
    10.8955  13.4584  13.8082  14.9515  15.1204  15.6009  17.1048  17.3371
    17.7105  17.9019

          k = 0.0000 0.1777 0.3554 (  3997 PWs)   bands (ev):

   -70.5260 -40.6284 -36.6104 -36.5943 -36.5835 -16.9888 -16.8279 -16.7443
    11.6907  13.4474  14.1615  14.9174  15.0860  15.4137  16.8326  17.0207
    17.8098  17.9166

          k = 0.0000 0.1777 0.4442 (  3990 PWs)   bands (ev):

   -70.5257 -40.6246 -36.6147 -36.5943 -36.5830 -17.0297 -16.8239 -16.7412
    12.4538  13.1625  14.4259  14.9598  15.1045  15.2208  16.6741  16.7938
    17.8139  18.0012

          k = 0.0000 0.2665 0.2665 (  4000 PWs)   bands (ev):

   -70.5260 -40.6269 -36.6059 -36.6011 -36.5835 -16.9164 -16.9020 -16.7432
    11.4371  13.4300  14.2076  14.7634  15.0642  15.3599  17.1309  17.3150
    17.6126  18.0566

          k = 0.0000 0.2665 0.3554 (  3993 PWs)   bands (ev):

   -70.5254 -40.6196 -36.6120 -36.6036 -36.5827 -16.9772 -16.8998 -16.7373
    12.0206  13.2942  14.6068  14.6634  15.0681  15.1841  16.9580  17.2919
    17.7590  18.3038

          k = 0.0000 0.2665 0.4442 (  3996 PWs)   bands (ev):

   -70.5250 -40.6153 -36.6164 -36.6043 -36.5822 -17.0167 -16.8948 -16.7338
    12.4885  13.0749  14.6732  14.8257  14.8325  15.4861  16.7250  17.2560
    17.9338  18.5257

          k = 0.0000 0.3554 0.3554 (  4002 PWs)   bands (ev):

   -70.5248 -40.6115 -36.6142 -36.6114 -36.5819 -16.9700 -16.9617 -16.7309
    12.2771  13.0919  14.4943  14.7545  15.1529  15.5223  17.0622  17.5999
    17.6192  18.6684

          k = 0.0000 0.3554 0.4442 (  3999 PWs)   bands (ev):

   -70.5244 -40.6067 -36.6181 -36.6135 -36.5814 -17.0047 -16.9593 -16.7270
    12.4130  12.9447  14.4466  14.5382  15.4824  16.1124  16.8342  17.6608
    17.7903  18.9413

          k = 0.0000 0.4442 0.4442 (  3998 PWs)   bands (ev):

   -70.5240 -40.6016 -36.6192 -36.6188 -36.5809 -16.9980 -16.9969 -16.7230
    12.3373  12.8636  14.3370  14.3676  16.1334  16.5477  17.1619  17.3296
    17.9073  19.1861

          k = 0.0888 0.0888 0.0888 (  3959 PWs)   bands (ev):

   -70.5282 -40.6503 -36.5896 -36.5896 -36.5877 -16.7903 -16.7843 -16.7843
     9.4928  13.0778  13.0778  15.2699  15.2699  15.5644  17.4670  17.4670
    18.4394  19.0459

          k = 0.0888 0.0888 0.1777 (  3966 PWs)   bands (ev):

   -70.5277 -40.6453 -36.5952 -36.5888 -36.5876 -16.8465 -16.7829 -16.7803
     9.9482  13.2789  13.2798  15.1700  15.2150  15.6368  17.2642  17.5696
    18.0096  18.5157

          k = 0.0888 0.0888 0.2665 (  3992 PWs)   bands (ev):

   -70.5270 -40.6387 -36.6027 -36.5878 -36.5872 -16.9240 -16.7765 -16.7751
    10.6546  13.4898  13.5902  15.1148  15.1402  15.6325  16.9574  17.5149
    17.8269  17.9381

          k = 0.0888 0.0888 0.3554 (  3994 PWs)   bands (ev):

   -70.5264 -40.6326 -36.6096 -36.5869 -36.5868 -16.9945 -16.7706 -16.7704
    11.5249  13.5154  13.9648  15.0483  15.1384  15.5582  16.6126  17.2406
    17.4785  17.9031

          k = 0.0888 0.0888 0.4442 (  4007 PWs)   bands (ev):

   -70.5260 -40.6291 -36.6138 -36.5866 -36.5864 -17.0361 -16.7675 -16.7670
    12.4035  13.1837  14.2922  14.9348  15.2368  15.4802  16.3629  16.9656
    17.2275  17.9900

          k = 0.0888 0.1777 0.1777 (  3984 PWs)   bands (ev):

   -70.5271 -40.6398 -36.5965 -36.5931 -36.5875 -16.8462 -16.8349 -16.7769
    10.3772  13.4150  13.5178  15.0273  15.1140  15.6007  17.3186  17.5417
    17.7494  18.2587

          k = 0.0888 0.1777 0.2665 (  3994 PWs)   bands (ev):

   -70.5265 -40.6326 -36.6034 -36.5940 -36.5869 -16.9170 -16.8325 -16.7708
    11.0313  13.5666  13.8247  14.9109  15.0194  15.4378  17.1835  17.4455
    17.7470  17.9511

          k = 0.0888 0.1777 0.3554 (  4001 PWs)   bands (ev):

   -70.5258 -40.6260 -36.6106 -36.5941 -36.5862 -16.9859 -16.8259 -16.7651
    11.8111  13.5615  14.1220  14.8406  15.0059  15.2745  16.9739  17.1210
    17.6124  18.1803

          k = 0.0888 0.1777 0.4442 (  3993 PWs)   bands (ev):

   -70.5255 -40.6221 -36.6149 -36.5941 -36.5858 -17.0266 -16.8220 -16.7618
    12.5524  13.2644  14.3467  14.7710  15.1019  15.2101  16.8035  16.8622
    17.4250  18.5252

          k = 0.0888 0.2665 0.2665 (  3989 PWs)   bands (ev):

   -70.5258 -40.6246 -36.6055 -36.6012 -36.5861 -16.9136 -16.9005 -16.7642
    11.5747  13.5425  14.2166  14.7273  14.9516  15.1663  17.2374  17.4586
    17.5952  18.1726

          k = 0.0888 0.2665 0.3554 (  3985 PWs)   bands (ev):

   -70.5252 -40.6173 -36.6119 -36.6034 -36.5854 -16.9747 -16.8979 -16.7581
    12.1547  13.4087  14.5536  14.6232  14.9576  15.0684  17.0323  17.3729
    17.6584  18.5424

          k = 0.0888 0.2665 0.4442 (  4006 PWs)   bands (ev):

   -70.5248 -40.6129 -36.6164 -36.6040 -36.5850 -17.0141 -16.8930 -16.7545
    12.6099  13.1915  14.5973  14.6317  14.8940  15.4092  16.7573  17.3506
    17.5857  18.9806

          k = 0.0888 0.3554 0.3554 (  3992 PWs)   bands (ev):

   -70.5246 -40.6092 -36.6139 -36.6113 -36.5846 -16.9676 -16.9601 -16.7517
    12.4136  13.2056  14.4653  14.6720  15.1130  15.3674  17.0357  17.4861
    17.7119  18.9466

          k = 0.0888 0.3554 0.4442 (  4002 PWs)   bands (ev):

   -70.5242 -40.6045 -36.6179 -36.6132 -36.5842 -17.0026 -16.9576 -16.7478
    12.5408  13.0625  14.4154  14.4900  15.4099  15.9510  16.8006  17.4475
    17.7945  19.1644

          k = 0.0888 0.4442 0.4442 (  3993 PWs)   bands (ev):

   -70.5238 -40.5994 -36.6188 -36.6185 -36.5837 -16.9963 -16.9952 -16.7438
    12.4651  12.9811  14.3150  14.3414  16.0749  16.4027  16.9538  17.0291
    17.9799  19.3702

          k = 0.1777 0.1777 0.1777 (  3989 PWs)   bands (ev):

   -70.5266 -40.6340 -36.5957 -36.5957 -36.5917 -16.8430 -16.8307 -16.8307
    10.7913  13.6494  13.6494  14.9362  14.9362  15.3600  17.4668  17.4668
    17.7961  18.4778

          k = 0.1777 0.1777 0.2665 (  3992 PWs)   bands (ev):

   -70.5260 -40.6265 -36.6034 -36.5946 -36.5929 -16.9103 -16.8291 -16.8253
    11.4138  13.8432  13.8752  14.8097  14.8129  15.0774  17.3536  17.5201
    17.9246  18.0704

          k = 0.1777 0.1777 0.3554 (  3994 PWs)   bands (ev):

   -70.5253 -40.6195 -36.6110 -36.5936 -36.5934 -16.9782 -16.8209 -16.8203
    12.1337  13.8111  14.0603  14.6809  14.8329  15.0144  17.2353  17.2615
    17.4931  18.5769

          k = 0.1777 0.1777 0.4442 (  3986 PWs)   bands (ev):

   -70.5250 -40.6154 -36.6155 -36.5937 -36.5931 -17.0183 -16.8174 -16.8160
    12.7828  13.4652  14.2402  14.5625  14.9310  15.1631  16.8763  17.1728
    17.2434  18.9236

          k = 0.1777 0.2665 0.2665 (  3994 PWs)   bands (ev):

   -70.5253 -40.6184 -36.6047 -36.6016 -36.5932 -16.9059 -16.8962 -16.8202
    11.9621  13.8496  14.2379  14.6333  14.6990  14.7668  17.3573  17.5216
    17.8421  18.5003

          k = 0.1777 0.2665 0.3554 (  3988 PWs)   bands (ev):

   -70.5247 -40.6110 -36.6116 -36.6030 -36.5927 -16.9680 -16.8927 -16.8137
    12.5286  13.7098  14.3814  14.5227  14.7291  14.8405  17.1345  17.3618
    17.7451  18.7930

          k = 0.1777 0.2665 0.4442 (  3991 PWs)   bands (ev):

   -70.5243 -40.6065 -36.6164 -36.6033 -36.5924 -17.0073 -16.8880 -16.8097
    12.9391  13.4822  14.3732  14.4623  14.7960  15.2254  16.7923  17.2189
    17.6642  18.9899

          k = 0.1777 0.3554 0.3554 (  3990 PWs)   bands (ev):

   -70.5241 -40.6031 -36.6129 -36.6111 -36.5920 -16.9613 -16.9557 -16.8072
    12.8036  13.5036  14.3924  14.4917  14.9900  14.9910  17.0189  17.2230
    17.9831  18.9424

          k = 0.1777 0.3554 0.4442 (  3993 PWs)   bands (ev):

   -70.5237 -40.5984 -36.6173 -36.6123 -36.5915 -16.9972 -16.9529 -16.8033
    12.9045  13.3722  14.3408  14.3814  15.1744  15.5636  16.7467  17.0855
    18.0515  19.1596

          k = 0.1777 0.4442 0.4442 (  4002 PWs)   bands (ev):

   -70.5233 -40.5936 -36.6179 -36.6176 -36.5910 -16.9916 -16.9908 -16.7995
    12.8317  13.2949  14.2616  14.2801  15.8061  15.8839  16.6435  16.8165
    18.2192  19.4252

          k = 0.2665 0.2665 0.2665 (  3998 PWs)   bands (ev):

   -70.5246 -40.6102 -36.6035 -36.6035 -36.6011 -16.8981 -16.8905 -16.8905
    12.5110  14.2579  14.2579  14.3272  14.5161  14.5161  17.3599  17.3599
    18.2695  18.2695

          k = 0.2665 0.2665 0.3554 (  3992 PWs)   bands (ev):

   -70.5240 -40.6027 -36.6114 -36.6025 -36.6022 -16.9594 -16.8861 -16.8854
    13.0321  13.9586  14.2664  14.4137  14.5025  14.6993  17.1176  17.1707
    18.1322  18.7177

          k = 0.2665 0.2665 0.4442 (  3990 PWs)   bands (ev):

   -70.5237 -40.5982 -36.6165 -36.6025 -36.6018 -16.9984 -16.8823 -16.8806
    13.3171  13.7239  14.2665  14.3546  14.6389  15.0819  16.7412  17.0567
    18.0836  19.0224

          k = 0.2665 0.3554 0.3554 (  3988 PWs)   bands (ev):

   -70.5234 -40.5950 -36.6117 -36.6108 -36.6016 -16.9529 -16.9500 -16.8793
    13.3817  13.8255  14.3104  14.3792  14.5722  14.7972  16.9719  16.9750
    18.4063  18.9000

          k = 0.2665 0.3554 0.4442 (  3992 PWs)   bands (ev):

   -70.5231 -40.5905 -36.6165 -36.6112 -36.6012 -16.9902 -16.9468 -16.8754
    13.4282  13.7338  14.2726  14.3090  14.8142  15.1586  16.6565  16.8993
    18.4623  19.1930

          k = 0.2665 0.4442 0.4442 (  4000 PWs)   bands (ev):

   -70.5227 -40.5859 -36.6166 -36.6165 -36.6006 -16.9855 -16.9851 -16.8719
    13.3784  13.6947  14.2099  14.2316  15.2939  15.3272  16.5043  16.7463
    18.6207  19.4590

          k = 0.3554 0.3554 0.3554 (  3999 PWs)   bands (ev):

   -70.5228 -40.5876 -36.6106 -36.6106 -36.6104 -16.9454 -16.9447 -16.9447
    13.8387  14.0402  14.2602  14.2602  14.5789  14.5789  16.8142  16.8142
    18.9054  18.9054

          k = 0.3554 0.3554 0.4442 (  4008 PWs)   bands (ev):

   -70.5225 -40.5832 -36.6158 -36.6103 -36.6099 -16.9837 -16.9416 -16.9406
    13.8393  13.9731  14.2712  14.4042  14.5206  14.8898  16.5738  16.7450
    18.9169  19.2768

          k = 0.3554 0.4442 0.4442 (  3994 PWs)   bands (ev):

   -70.5221 -40.5788 -36.6154 -36.6154 -36.6095 -16.9799 -16.9798 -16.9377
    13.9384  14.0471  14.2004  14.2850  14.8186  14.8725  16.4686  16.6197
    19.1168  19.4852

          k = 0.4442 0.4442 0.4442 (  3972 PWs)   bands (ev):

   -70.5217 -40.5746 -36.6148 -36.6147 -36.6147 -16.9766 -16.9766 -16.9764
    14.1386  14.2580  14.2580  14.5559  14.5587  14.5587  16.4598  16.4598
    19.5001  19.5001

     the Fermi energy is    16.2323 ev

!    total energy              =    -448.58371904 Ry
     estimated scf accuracy    <          3.1E-11 Ry
     smearing contrib. (-TS)   =       0.00006905 Ry
     internal energy E=F+TS    =    -448.58378808 Ry

     The total energy is F=E-TS. E is the sum of the following terms:
     one-electron contribution =    -160.46326955 Ry
     hartree contribution      =      94.73530506 Ry
     xc contribution           =     -52.77234990 Ry
     ewald contribution        =    -253.93121231 Ry
     one-center paw contrib.   =     -76.15226138 Ry

     convergence has been achieved in  12 iterations

     negative rho (up, down):  9.734E-04 0.000E+00

     Forces acting on atoms (cartesian axes, Ry/au):

     atom    1 type  1   force =     0.00000000    0.00000000    0.00000000
     atom    2 type  2   force =     0.00000000    0.00000000    0.00000000

     Total force =     0.000000     Total SCF correction =     0.000000


     Computing stress (Cartesian axis) and pressure


     negative rho (up, down):  9.734E-04 0.000E+00
          total   stress  (Ry/bohr**3)                   (kbar)     P=      -92.57
  -0.00062927   0.00000000   0.00000000          -92.57        0.00        0.00
   0.00000000  -0.00062927   0.00000000            0.00      -92.57        0.00
   0.00000000   0.00000000  -0.00062927            0.00        0.00      -92.57

     Energy error            =      1.2E-03 Ry
     Gradient error          =      0.0E+00 Ry/Bohr
     Cell gradient error     =      2.7E-02 kbar

     number of scf cycles    =   3
     number of bfgs steps    =   2

     enthalpy           old  =    -448.6980003450 Ry
     enthalpy           new  =    -448.6991941789 Ry

     CASE: enthalpy          _new < enthalpy          _old

     small trust_radius: resetting bfgs history

     new trust radius        =       0.0000125171 bohr
[...]
     estimated scf accuracy    <       0.00005097 Ry

     iteration # 27     ecut=   124.00 Ry     beta= 0.70
     Davidson diagonalization with overlap
     ethr =  1.82E-07,  avg # of iterations =  2.2

     negative rho (up, down):  9.744E-04 0.000E+00

     total cpu time spent up to now is      114.1 secs

     total energy              =    -448.58385577 Ry
     estimated scf accuracy    <       0.00000263 Ry

     iteration # 28     ecut=   124.00 Ry     beta= 0.70
     Davidson diagonalization with overlap
     ethr =  9.38E-09,  avg # of iterations =  4.6

     negative rho (up, down):  9.741E-04 0.000E+00

     total cpu time spent up to now is      115.5 secs

     total energy              =    -448.58385655 Ry
     estimated scf accuracy    <       0.00000020 Ry

     iteration # 29     ecut=   124.00 Ry     beta= 0.70
     Davidson diagonalization with overlap
     ethr =  7.09E-10,  avg # of iterations =  3.5

     negative rho (up, down):  9.740E-04 0.000E+00

     total cpu time spent up to now is      116.9 secs

     total energy              =    -448.58385659 Ry
     estimated scf accuracy    <       0.00000001 Ry

     iteration # 30     ecut=   124.00 Ry     beta= 0.70
     Davidson diagonalization with overlap
     ethr =  4.85E-11,  avg # of iterations =  4.3

     negative rho (up, down):  9.739E-04 0.000E+00

     total cpu time spent up to now is      118.3 secs

     total energy              =    -448.58385659 Ry
     estimated scf accuracy    <       0.00000007 Ry

     iteration # 31     ecut=   124.00 Ry     beta= 0.70
     Davidson diagonalization with overlap
     ethr =  4.85E-11,  avg # of iterations =  4.1

     negative rho (up, down):  9.740E-04 0.000E+00

     total cpu time spent up to now is      119.7 secs

     total energy              =    -448.58385659 Ry
     estimated scf accuracy    <          6.6E-09 Ry

     iteration # 32     ecut=   124.00 Ry     beta= 0.70
     Davidson diagonalization with overlap
     ethr =  2.34E-11,  avg # of iterations =  1.1

     negative rho (up, down):  9.740E-04 0.000E+00

     total cpu time spent up to now is      120.9 secs

     total energy              =    -448.58385659 Ry
     estimated scf accuracy    <          9.3E-10 Ry

     iteration # 33     ecut=   124.00 Ry     beta= 0.70
     Davidson diagonalization with overlap
     ethr =  3.32E-12,  avg # of iterations =  3.7

     negative rho (up, down):  9.740E-04 0.000E+00

     total cpu time spent up to now is      122.2 secs

     total energy              =    -448.58385659 Ry
     estimated scf accuracy    <          6.5E-10 Ry

     iteration # 34     ecut=   124.00 Ry     beta= 0.70
     Davidson diagonalization with overlap
     ethr =  2.31E-12,  avg # of iterations =  1.2

     negative rho (up, down):  9.740E-04 0.000E+00

     total cpu time spent up to now is      123.4 secs

     End of self-consistent calculation

          k = 0.0000 0.0000 0.0000 (  4337 PWs)   bands (ev):

   -70.5291 -40.6559 -36.5879 -36.5879 -36.5879 -16.7670 -16.7670 -16.7670
     9.0137  12.8506  12.8506  15.3758  15.3758  15.3758  17.5284  17.5284
    19.2899  19.2899

          k = 0.0000 0.0000 0.0888 (  4284 PWs)   bands (ev):

   -70.5289 -40.6542 -36.5899 -36.5876 -36.5876 -16.7898 -16.7656 -16.7656
     9.1761  12.9276  12.9277  15.3639  15.3639  15.4104  17.4348  17.5630
    19.0644  19.0644

          k = 0.0000 0.0000 0.1777 (  4280 PWs)   bands (ev):

   -70.5284 -40.6495 -36.5955 -36.5868 -36.5868 -16.8507 -16.7617 -16.7617
     9.6488  13.1247  13.1526  15.3362  15.3362  15.5072  17.1635  17.6386
    18.5373  18.5373

          k = 0.0000 0.0000 0.2665 (  4264 PWs)   bands (ev):

   -70.5277 -40.6434 -36.6028 -36.5859 -36.5859 -16.9296 -16.7566 -16.7566
    10.3877  13.3370  13.5059  15.3112  15.3112  15.6445  16.7468  17.6535
    17.9521  17.9521

          k = 0.0000 0.0000 0.3554 (  4264 PWs)   bands (ev):

   -70.5271 -40.6379 -36.6094 -36.5850 -36.5850 -17.0013 -16.7519 -16.7519
    11.3106  13.3858  13.9415  15.3035  15.3035  15.7839  16.2501  17.4522
    17.4732  17.4732

          k = 0.0000 0.0000 0.4442 (  4264 PWs)   bands (ev):

   -70.5267 -40.6345 -36.6134 -36.5844 -36.5844 -17.0437 -16.7492 -16.7492
    12.2636  13.0639  14.3290  15.3087  15.3087  15.8250  15.8746  17.1490
    17.2029  17.2029

          k = 0.0000 0.0888 0.0888 (  4281 PWs)   bands (ev):

   -70.5287 -40.6524 -36.5905 -36.5890 -36.5873 -16.7904 -16.7860 -16.7641
     9.3355  12.9980  13.0083  15.2903  15.3448  15.4961  17.4209  17.5369
    18.8170  18.8380

          k = 0.0000 0.0888 0.1777 (  4265 PWs)   bands (ev):

   -70.5282 -40.6475 -36.5957 -36.5889 -36.5866 -16.8488 -16.7836 -16.7601
     9.7990  13.1896  13.2283  15.2177  15.2977  15.6015  17.2121  17.6028
    18.3224  18.3563

          k = 0.0000 0.0888 0.2665 (  4255 PWs)   bands (ev):

   -70.5275 -40.6412 -36.6030 -36.5883 -36.5856 -16.9269 -16.7780 -16.7548
    10.5206  13.4006  13.5595  15.1769  15.2440  15.6784  16.8575  17.5631
    17.8647  17.9034

          k = 0.0000 0.0888 0.3554 (  4269 PWs)   bands (ev):

   -70.5269 -40.6354 -36.6098 -36.5876 -36.5847 -16.9980 -16.7727 -16.7499
    11.4156  13.4392  13.9640  15.1789  15.1958  15.6860  16.4494  17.1872
    17.5994  17.7023

          k = 0.0000 0.0888 0.4442 (  4276 PWs)   bands (ev):

   -70.5265 -40.6319 -36.6139 -36.5873 -36.5842 -17.0399 -16.7696 -16.7471
    12.3290  13.1160  14.3202  15.1349  15.2082  15.6408  16.1522  16.9115
    17.4757  17.5155

          k = 0.0000 0.1777 0.1777 (  4266 PWs)   bands (ev):

   -70.5277 -40.6422 -36.5974 -36.5933 -36.5858 -16.8489 -16.8367 -16.7557
    10.2323  13.3228  13.4712  15.0611  15.2083  15.6690  17.2567  17.5669
    17.8494  18.0645

          k = 0.0000 0.1777 0.2665 (  4266 PWs)   bands (ev):

   -70.5270 -40.6351 -36.6040 -36.5946 -36.5849 -16.9198 -16.8347 -16.7499
    10.8952  13.4582  13.8080  14.9512  15.1201  15.6006  17.1045  17.3368
    17.7102  17.9016

          k = 0.0000 0.1777 0.3554 (  4269 PWs)   bands (ev):

   -70.5264 -40.6287 -36.6110 -36.5948 -36.5841 -16.9891 -16.8282 -16.7446
    11.6903  13.4471  14.1612  14.9171  15.0857  15.4134  16.8323  17.0204
    17.8095  17.9162

          k = 0.0000 0.1777 0.4442 (  4270 PWs)   bands (ev):

   -70.5260 -40.6248 -36.6152 -36.5949 -36.5835 -17.0300 -16.8242 -16.7414
    12.4535  13.1622  14.4256  14.9595  15.1042  15.2206  16.6738  16.7935
    17.8135  18.0009

          k = 0.0000 0.2665 0.2665 (  4262 PWs)   bands (ev):

   -70.5263 -40.6272 -36.6064 -36.6016 -36.5840 -16.9167 -16.9023 -16.7435
    11.4368  13.4297  14.2073  14.7631  15.0639  15.3596  17.1306  17.3147
    17.6123  18.0563

          k = 0.0000 0.2665 0.3554 (  4273 PWs)   bands (ev):

   -70.5257 -40.6199 -36.6126 -36.6041 -36.5832 -16.9774 -16.9001 -16.7376
    12.0203  13.2939  14.6065  14.6631  15.0678  15.1838  16.9577  17.2916
    17.7586  18.3034

          k = 0.0000 0.2665 0.4442 (  4285 PWs)   bands (ev):

   -70.5254 -40.6155 -36.6170 -36.6049 -36.5827 -17.0169 -16.8951 -16.7341
    12.4883  13.0746  14.6729  14.8253  14.8323  15.4857  16.7247  17.2557
    17.9334  18.5254

          k = 0.0000 0.3554 0.3554 (  4270 PWs)   bands (ev):

   -70.5251 -40.6118 -36.6148 -36.6119 -36.5824 -16.9703 -16.9620 -16.7311
    12.2769  13.0916  14.4940  14.7542  15.1526  15.5220  17.0618  17.5995
    17.6189  18.6681

          k = 0.0000 0.3554 0.4442 (  4284 PWs)   bands (ev):

   -70.5247 -40.6070 -36.6186 -36.6140 -36.5819 -17.0049 -16.9596 -16.7273
    12.4127  12.9445  14.4463  14.5380  15.4820  16.1120  16.8339  17.6605
    17.7899  18.9410

          k = 0.0000 0.4442 0.4442 (  4294 PWs)   bands (ev):

   -70.5244 -40.6018 -36.6197 -36.6194 -36.5815 -16.9983 -16.9971 -16.7232
    12.3370  12.8633  14.3368  14.3673  16.1331  16.5474  17.1615  17.3291
    17.9070  19.1857

          k = 0.0888 0.0888 0.0888 (  4265 PWs)   bands (ev):

   -70.5285 -40.6505 -36.5902 -36.5902 -36.5882 -16.7905 -16.7846 -16.7846
     9.4925  13.0776  13.0776  15.2697  15.2697  15.5641  17.4667  17.4667
    18.4391  19.0455

          k = 0.0888 0.0888 0.1777 (  4271 PWs)   bands (ev):

   -70.5280 -40.6455 -36.5957 -36.5894 -36.5881 -16.8468 -16.7832 -16.7806
     9.9479  13.2787  13.2795  15.1698  15.2148  15.6365  17.2639  17.5693
    18.0092  18.5153

          k = 0.0888 0.0888 0.2665 (  4262 PWs)   bands (ev):

   -70.5273 -40.6389 -36.6032 -36.5884 -36.5877 -16.9243 -16.7768 -16.7754
    10.6543  13.4896  13.5899  15.1145  15.1399  15.6322  16.9571  17.5146
    17.8266  17.9378

          k = 0.0888 0.0888 0.3554 (  4266 PWs)   bands (ev):

   -70.5267 -40.6329 -36.6102 -36.5875 -36.5873 -16.9948 -16.7708 -16.7706
    11.5246  13.5151  13.9645  15.0480  15.1382  15.5579  16.6123  17.2403
    17.4782  17.9027

          k = 0.0888 0.0888 0.4442 (  4266 PWs)   bands (ev):

   -70.5263 -40.6293 -36.6143 -36.5871 -36.5869 -17.0364 -16.7678 -16.7673
    12.4032  13.1833  14.2920  14.9346  15.2365  15.4799  16.3626  16.9653
    17.2271  17.9897

          k = 0.0888 0.1777 0.1777 (  4259 PWs)   bands (ev):

   -70.5275 -40.6400 -36.5971 -36.5936 -36.5881 -16.8465 -16.8351 -16.7772
    10.3769  13.4148  13.5176  15.0271  15.1137  15.6004  17.3183  17.5414
    17.7490  18.2584

          k = 0.0888 0.1777 0.2665 (  4273 PWs)   bands (ev):

   -70.5268 -40.6328 -36.6039 -36.5946 -36.5874 -16.9173 -16.8328 -16.7711
    11.0310  13.5663  13.8245  14.9107  15.0192  15.4375  17.1833  17.4451
    17.7466  17.9507

          k = 0.0888 0.1777 0.3554 (  4262 PWs)   bands (ev):

   -70.5262 -40.6262 -36.6111 -36.5946 -36.5868 -16.9862 -16.8262 -16.7654
    11.8108  13.5612  14.1217  14.8404  15.0056  15.2742  16.9736  17.1207
    17.6120  18.1800

          k = 0.0888 0.1777 0.4442 (  4280 PWs)   bands (ev):

   -70.5258 -40.6223 -36.6154 -36.5946 -36.5864 -17.0269 -16.8222 -16.7620
    12.5521  13.2641  14.3464  14.7707  15.1016  15.2098  16.8032  16.8619
    17.4246  18.5248

          k = 0.0888 0.2665 0.2665 (  4275 PWs)   bands (ev):

   -70.5261 -40.6249 -36.6061 -36.6017 -36.5867 -16.9138 -16.9007 -16.7645
    11.5744  13.5423  14.2163  14.7270  14.9513  15.1660  17.2371  17.4583
    17.5949  18.1723

          k = 0.0888 0.2665 0.3554 (  4284 PWs)   bands (ev):

   -70.5255 -40.6175 -36.6124 -36.6040 -36.5859 -16.9749 -16.8981 -16.7584
    12.1543  13.4085  14.5533  14.6230  14.9573  15.0681  17.0319  17.3726
    17.6581  18.5420

          k = 0.0888 0.2665 0.4442 (  4284 PWs)   bands (ev):

   -70.5252 -40.6132 -36.6170 -36.6046 -36.5855 -17.0144 -16.8932 -16.7548
    12.6097  13.1912  14.5971  14.6314  14.8937  15.4088  16.7570  17.3503
    17.5853  18.9803

          k = 0.0888 0.3554 0.3554 (  4281 PWs)   bands (ev):

   -70.5249 -40.6095 -36.6144 -36.6119 -36.5852 -16.9679 -16.9603 -16.7519
    12.4133  13.2053  14.4651  14.6718  15.1127  15.3670  17.0354  17.4857
    17.7116  18.9463

          k = 0.0888 0.3554 0.4442 (  4284 PWs)   bands (ev):

   -70.5246 -40.6047 -36.6184 -36.6137 -36.5847 -17.0029 -16.9578 -16.7481
    12.5405  13.0623  14.4151  14.4897  15.4095  15.9506  16.8002  17.4471
    17.7942  19.1641

          k = 0.0888 0.4442 0.4442 (  4289 PWs)   bands (ev):

   -70.5242 -40.5997 -36.6194 -36.6190 -36.5842 -16.9965 -16.9955 -16.7441
    12.4649  12.9808  14.3147  14.3412  16.0746  16.4023  16.9534  17.0286
    17.9796  19.3698

          k = 0.1777 0.1777 0.1777 (  4262 PWs)   bands (ev):

   -70.5270 -40.6343 -36.5962 -36.5962 -36.5922 -16.8433 -16.8310 -16.8310
    10.7910  13.6492  13.6492  14.9359  14.9359  15.3597  17.4665  17.4665
    17.7958  18.4775

          k = 0.1777 0.1777 0.2665 (  4283 PWs)   bands (ev):

   -70.5263 -40.6267 -36.6039 -36.5952 -36.5934 -16.9105 -16.8294 -16.8256
    11.4134  13.8430  13.8749  14.8094  14.8126  15.0771  17.3533  17.5198
    17.9242  18.0700

          k = 0.1777 0.1777 0.3554 (  4283 PWs)   bands (ev):

   -70.5257 -40.6197 -36.6115 -36.5942 -36.5939 -16.9784 -16.8212 -16.8206
    12.1334  13.8108  14.0601  14.6806  14.8326  15.0141  17.2350  17.2611
    17.4928  18.5765

          k = 0.1777 0.1777 0.4442 (  4287 PWs)   bands (ev):

   -70.5253 -40.6156 -36.6161 -36.5942 -36.5936 -17.0185 -16.8176 -16.8162
    12.7825  13.4648  14.2399  14.5623  14.9308  15.1627  16.8760  17.1725
    17.2430  18.9233

          k = 0.1777 0.2665 0.2665 (  4286 PWs)   bands (ev):

   -70.5256 -40.6186 -36.6052 -36.6022 -36.5937 -16.9061 -16.8964 -16.8204
    11.9617  13.8494  14.2376  14.6330  14.6987  14.7665  17.3570  17.5213
    17.8417  18.5000

          k = 0.1777 0.2665 0.3554 (  4284 PWs)   bands (ev):

   -70.5250 -40.6112 -36.6122 -36.6036 -36.5933 -16.9683 -16.8929 -16.8139
    12.5283  13.7095  14.3812  14.5225  14.7288  14.8402  17.1342  17.3615
    17.7448  18.7926

          k = 0.1777 0.2665 0.4442 (  4282 PWs)   bands (ev):

   -70.5247 -40.6068 -36.6170 -36.6038 -36.5930 -17.0076 -16.8882 -16.8100
    12.9388  13.4819  14.3729  14.4620  14.7957  15.2251  16.7919  17.2185
    17.6639  18.9895

          k = 0.1777 0.3554 0.3554 (  4282 PWs)   bands (ev):

   -70.5244 -40.6033 -36.6135 -36.6116 -36.5925 -16.9615 -16.9560 -16.8075
    12.8033  13.5033  14.3922  14.4914  14.9897  14.9906  17.0186  17.2226
    17.9828  18.9421

          k = 0.1777 0.3554 0.4442 (  4287 PWs)   bands (ev):

   -70.5241 -40.5987 -36.6178 -36.6129 -36.5921 -16.9975 -16.9532 -16.8036
    12.9042  13.3719  14.3405  14.3811  15.1741  15.5632  16.7464  17.0851
    18.0512  19.1593

          k = 0.1777 0.4442 0.4442 (  4282 PWs)   bands (ev):

   -70.5237 -40.5938 -36.6184 -36.6181 -36.5916 -16.9919 -16.9911 -16.7998
    12.8314  13.2946  14.2613  14.2799  15.8057  15.8835  16.6431  16.8162
    18.2189  19.4249

          k = 0.2665 0.2665 0.2665 (  4299 PWs)   bands (ev):

   -70.5250 -40.6105 -36.6041 -36.6041 -36.6017 -16.8984 -16.8908 -16.8908
    12.5106  14.2576  14.2576  14.3269  14.5159  14.5159  17.3596  17.3596
    18.2692  18.2692

          k = 0.2665 0.2665 0.3554 (  4293 PWs)   bands (ev):

   -70.5244 -40.6029 -36.6120 -36.6030 -36.6028 -16.9597 -16.8864 -16.8856
    13.0318  13.9583  14.2661  14.4134  14.5022  14.6990  17.1173  17.1704
    18.1319  18.7173

          k = 0.2665 0.2665 0.4442 (  4282 PWs)   bands (ev):

   -70.5240 -40.5984 -36.6170 -36.6031 -36.6024 -16.9986 -16.8825 -16.8809
    13.3168  13.7236  14.2662  14.3543  14.6386  15.0815  16.7409  17.0564
    18.0833  19.0220

          k = 0.2665 0.3554 0.3554 (  4291 PWs)   bands (ev):

   -70.5238 -40.5953 -36.6123 -36.6113 -36.6022 -16.9531 -16.9502 -16.8796
    13.3813  13.8252  14.3102  14.3789  14.5719  14.7969  16.9716  16.9747
    18.4059  18.8997

          k = 0.2665 0.3554 0.4442 (  4291 PWs)   bands (ev):

   -70.5234 -40.5907 -36.6170 -36.6117 -36.6018 -16.9904 -16.9470 -16.8757
    13.4279  13.7335  14.2724  14.3087  14.8138  15.1582  16.6562  16.8990
    18.4620  19.1926

          k = 0.2665 0.4442 0.4442 (  4294 PWs)   bands (ev):

   -70.5230 -40.5862 -36.6171 -36.6170 -36.6012 -16.9858 -16.9853 -16.8721
    13.3781  13.6944  14.2096  14.2314  15.2935  15.3268  16.5040  16.7460
    18.6203  19.4586

          k = 0.3554 0.3554 0.3554 (  4299 PWs)   bands (ev):

   -70.5232 -40.5879 -36.6111 -36.6111 -36.6110 -16.9457 -16.9450 -16.9450
    13.8384  14.0398  14.2600  14.2600  14.5786  14.5786  16.8139  16.8139
    18.9051  18.9051

          k = 0.3554 0.3554 0.4442 (  4292 PWs)   bands (ev):

   -70.5228 -40.5834 -36.6163 -36.6109 -36.6105 -16.9839 -16.9418 -16.9409
    13.8390  13.9728  14.2709  14.4039  14.5203  14.8894  16.5735  16.7446
    18.9166  19.2764

          k = 0.3554 0.4442 0.4442 (  4283 PWs)   bands (ev):

   -70.5224 -40.5791 -36.6159 -36.6159 -36.6100 -16.9801 -16.9801 -16.9380
    13.9381  14.0468  14.2001  14.2847  14.8182  14.8722  16.4683  16.6194
    19.1164  19.4848

          k = 0.4442 0.4442 0.4442 (  4263 PWs)   bands (ev):

   -70.5221 -40.5749 -36.6153 -36.6152 -36.6152 -16.9769 -16.9769 -16.9767
    14.1383  14.2577  14.2577  14.5555  14.5584  14.5584  16.4595  16.4595
    19.4997  19.4997

     the Fermi energy is    16.2322 ev

!    total energy              =    -448.58385659 Ry
     estimated scf accuracy    <          1.0E-11 Ry
     smearing contrib. (-TS)   =       0.00006888 Ry
     internal energy E=F+TS    =    -448.58392547 Ry

     The total energy is F=E-TS. E is the sum of the following terms:
     one-electron contribution =    -160.46492679 Ry
     hartree contribution      =      94.73577503 Ry
     xc contribution           =     -52.77245026 Ry
     ewald contribution        =    -253.93003896 Ry
     one-center paw contrib.   =     -76.15228449 Ry

     convergence has been achieved in  34 iterations

     negative rho (up, down):  9.740E-04 0.000E+00

     Forces acting on atoms (cartesian axes, Ry/au):

     atom    1 type  1   force =     0.00000000    0.00000000    0.00000000
     atom    2 type  2   force =     0.00000000    0.00000000    0.00000000

     Total force =     0.000000     Total SCF correction =     0.000000


     Computing stress (Cartesian axis) and pressure


     negative rho (up, down):  9.740E-04 0.000E+00
          total   stress  (Ry/bohr**3)                   (kbar)     P=      -92.32
  -0.00062758   0.00000000   0.00000000          -92.32        0.00        0.00
   0.00000000  -0.00062758   0.00000000            0.00      -92.32        0.00
   0.00000000   0.00000000  -0.00062758            0.00        0.00      -92.32


     Writing all to output data dir ./TiFe.save/ :
     XML data file, charge density, pseudopotentials, collected wavefunctions

     init_run     :      1.99s CPU      2.06s WALL (       2 calls)
     electrons    :    108.54s CPU    113.63s WALL (       5 calls)
     update_pot   :      0.24s CPU      0.25s WALL (       3 calls)
     forces       :      1.17s CPU      1.25s WALL (       5 calls)
     stress       :      6.93s CPU      7.13s WALL (       5 calls)

     Called by init_run:
     wfcinit      :      0.72s CPU      0.73s WALL (       2 calls)
     potinit      :      0.55s CPU      0.56s WALL (       2 calls)
     hinit0       :      0.38s CPU      0.39s WALL (       2 calls)

     Called by electrons:
     c_bands      :     66.90s CPU     68.38s WALL (      98 calls)
     sum_band     :     23.34s CPU     25.25s WALL (      98 calls)
     v_of_rho     :      2.12s CPU      2.28s WALL (     101 calls)
     newd         :     11.62s CPU     13.03s WALL (     101 calls)
     PAW_pot      :      5.18s CPU      5.25s WALL (     104 calls)
     mix_rho      :      0.23s CPU      0.27s WALL (      98 calls)

     Called by c_bands:
     init_us_2    :      1.71s CPU      1.76s WALL (   11816 calls)
     cegterg      :     64.00s CPU     65.38s WALL (    5488 calls)

     Called by *egterg:
     cdiaghg      :      6.50s CPU      6.63s WALL (   20938 calls)
     h_psi        :     51.00s CPU     52.13s WALL (   21330 calls)
     s_psi        :      1.13s CPU      1.16s WALL (   21330 calls)
     g_psi        :      0.27s CPU      0.27s WALL (   15730 calls)

     Called by h_psi:
     h_psi:calbec :      1.64s CPU      1.68s WALL (   21330 calls)
     vloc_psi     :     47.99s CPU     49.06s WALL (   21330 calls)
     add_vuspsi   :      1.16s CPU      1.19s WALL (   21330 calls)

     General routines
     calbec       :      2.58s CPU      2.65s WALL (   31746 calls)
     fft          :      1.33s CPU      1.57s WALL (    1433 calls)
     ffts         :      0.40s CPU      0.41s WALL (     199 calls)
     fftw         :     44.91s CPU     45.84s WALL (  609464 calls)
     interpolate  :      0.48s CPU      0.51s WALL (     101 calls)

     Parallel routines

     PWSCF        :    119.74s CPU    125.38s WALL


   This run was terminated on:  15:19:40  25Oct2025            

=------------------------------------------------------------------------------=
   JOB DONE.
=------------------------------------------------------------------------------=
