
     Program PWSCF v.7.4 starts on 25Oct2025 at 15:35:27 

     This program is part of the open-source Quantum ESPRESSO suite
     for quantum simulation of materials; please cite
         "P. Giannozzi et al., J. Phys.:Condens. Matter 21 395502 (2009);
         "P. Giannozzi et al., J. Phys.:Condens. Matter 29 465901 (2017);
         "P. Giannozzi et al., J. Chem. Phys. 152 154105 (2020);
          URL http://www.quantum-espresso.org", 
     in publications or presentations arising from this work. More details at
     http://www.quantum-espresso.org/quote

     Parallel version (MPI & OpenMP), running on       8 processor cores
     Number of MPI processes:                 8
     Threads/MPI process:                     1

     MPI processes distributed on     1 nodes
     221496 MiB available memory on the printing compute node when the environment starts

     Reading input from TiFe_relaxed5.in

     Current dimensions of program PWSCF are:
     Max number of different atomic species (ntypx) = 10
     Max number of k-points (npk) =  40000
     Max angular momentum in pseudopotentials (lmaxx) =  4
     file Fe.pbe-spn-kjpaw_psl.0.2.1.UPF: wavefunction(s)  3D renormalized

     IMPORTANT: XC functional enforced from input :
     Exchange-correlation= PBE
                           (   1   4   3   4   0   0   0)
     Any further DFT definition will be discarded
     Please, verify this is what you really want

     Message from routine setup:
     using ibrav=0 with symmetry is DISCOURAGED, use correct ibrav instead

     R & G space division:  proc/nbgrp/npool/nimage =       8
     Subspace diagonalization in iterative solution of the eigenvalue problem:
     a serial algorithm will be used


     Parallelization info
     --------------------
     sticks:   dense  smooth     PW     G-vecs:    dense   smooth      PW
     Min         532     151     43                26154     3989     617
     Max         533     152     44                26155     3993     620
     Sum        4257    1209    349               209233    31919    4945

     Using Slab Decomposition



     bravais-lattice index     =            0
     lattice parameter (alat)  =       5.5533  a.u.
     unit-cell volume          =     171.2590 (a.u.)^3
     number of atoms/cell      =            2
     number of atomic types    =            2
     number of electrons       =        28.00
     number of Kohn-Sham states=           18
     kinetic-energy cutoff     =     124.0000  Ry
     charge density cutoff     =    1736.0000  Ry
     scf convergence threshold =      1.0E-08
     mixing beta               =       0.7000
     number of iterations used =            8  plain     mixing
     energy convergence thresh.=      1.0E-04
     force convergence thresh. =      1.0E-03
     press convergence thresh. =      5.0E-01
     Exchange-correlation= PBE
                           (   1   4   3   4   0   0   0)
     nstep                     =           50


     celldm(1)=   5.553300  celldm(2)=   0.000000  celldm(3)=   0.000000
     celldm(4)=   0.000000  celldm(5)=   0.000000  celldm(6)=   0.000000

     crystal axes: (cart. coord. in units of alat)
               a(1) = (   1.000000   0.000000   0.000000 )  
               a(2) = (   0.000000   1.000000   0.000000 )  
               a(3) = (   0.000000   0.000000   1.000000 )  

     reciprocal axes: (cart. coord. in units 2 pi/alat)
               b(1) = (  1.000000  0.000000  0.000000 )  
               b(2) = (  0.000000  1.000000  0.000000 )  
               b(3) = (  0.000000  0.000000  1.000000 )  


     PseudoPot. # 1 for Fe read from file:
     ../../pseudos/Fe.pbe-spn-kjpaw_psl.0.2.1.UPF
     MD5 check sum: e86618425769142926afa95317d90200
     Pseudo is Projector augmented-wave + core cor, Zval = 16.0
     Generated using "atomic" code by A. Dal Corso  v.5.0.99 svn rev. 10869
     Shape of augmentation charge: PSQ
     Using radial grid of 1191 points,  6 beta functions with: 
                l(1) =   0
                l(2) =   0
                l(3) =   1
                l(4) =   1
                l(5) =   2
                l(6) =   2
     Q(r) pseudized with 0 coefficients 


     PseudoPot. # 2 for Ti read from file:
     ../../pseudos/ti_pbe_v1.4.uspp.F.UPF
     MD5 check sum: 88a00a6731bd790ddea75d31a80cb452
     Pseudo is Ultrasoft + core correction, Zval = 12.0
     Generated by new atomic code, or converted to UPF format
     Using radial grid of  851 points,  6 beta functions with: 
                l(1) =   0
                l(2) =   0
                l(3) =   1
                l(4) =   1
                l(5) =   2
                l(6) =   2
     Q(r) pseudized with  6 coefficients,  rinner =    1.000   1.000   1.000
                                                       1.000   1.000

     atomic species   valence    mass     pseudopotential
     Fe               16.00    55.84500     Fe( 1.00)
     Ti               12.00    47.86700     Ti( 1.00)

     48 Sym. Ops., with inversion, found



   Cartesian axes

     site n.     atom                  positions (alat units)
         1        Fe     tau(   1) = (   0.5000000   0.5000000   0.5000000  )
         2        Ti     tau(   2) = (   0.0000000   0.0000000   0.0000000  )

     number of k points=    56  Marzari-Vanderbilt smearing, width (Ry)=  0.0050
                       cart. coord. in units 2pi/alat
        k(    1) = (   0.0000000   0.0000000   0.0000000), wk =   0.0015026
        k(    2) = (   0.0000000   0.0000000   0.0909091), wk =   0.0090158
        k(    3) = (   0.0000000   0.0000000   0.1818182), wk =   0.0090158
        k(    4) = (   0.0000000   0.0000000   0.2727273), wk =   0.0090158
        k(    5) = (   0.0000000   0.0000000   0.3636364), wk =   0.0090158
        k(    6) = (   0.0000000   0.0000000   0.4545455), wk =   0.0090158
        k(    7) = (   0.0000000   0.0909091   0.0909091), wk =   0.0180316
        k(    8) = (   0.0000000   0.0909091   0.1818182), wk =   0.0360631
        k(    9) = (   0.0000000   0.0909091   0.2727273), wk =   0.0360631
        k(   10) = (   0.0000000   0.0909091   0.3636364), wk =   0.0360631
        k(   11) = (   0.0000000   0.0909091   0.4545455), wk =   0.0360631
        k(   12) = (   0.0000000   0.1818182   0.1818182), wk =   0.0180316
        k(   13) = (   0.0000000   0.1818182   0.2727273), wk =   0.0360631
        k(   14) = (   0.0000000   0.1818182   0.3636364), wk =   0.0360631
        k(   15) = (   0.0000000   0.1818182   0.4545455), wk =   0.0360631
        k(   16) = (   0.0000000   0.2727273   0.2727273), wk =   0.0180316
        k(   17) = (   0.0000000   0.2727273   0.3636364), wk =   0.0360631
        k(   18) = (   0.0000000   0.2727273   0.4545455), wk =   0.0360631
        k(   19) = (   0.0000000   0.3636364   0.3636364), wk =   0.0180316
        k(   20) = (   0.0000000   0.3636364   0.4545455), wk =   0.0360631
        k(   21) = (   0.0000000   0.4545455   0.4545455), wk =   0.0180316
        k(   22) = (   0.0909091   0.0909091   0.0909091), wk =   0.0120210
        k(   23) = (   0.0909091   0.0909091   0.1818182), wk =   0.0360631
        k(   24) = (   0.0909091   0.0909091   0.2727273), wk =   0.0360631
        k(   25) = (   0.0909091   0.0909091   0.3636364), wk =   0.0360631
        k(   26) = (   0.0909091   0.0909091   0.4545455), wk =   0.0360631
        k(   27) = (   0.0909091   0.1818182   0.1818182), wk =   0.0360631
        k(   28) = (   0.0909091   0.1818182   0.2727273), wk =   0.0721262
        k(   29) = (   0.0909091   0.1818182   0.3636364), wk =   0.0721262
        k(   30) = (   0.0909091   0.1818182   0.4545455), wk =   0.0721262
        k(   31) = (   0.0909091   0.2727273   0.2727273), wk =   0.0360631
        k(   32) = (   0.0909091   0.2727273   0.3636364), wk =   0.0721262
        k(   33) = (   0.0909091   0.2727273   0.4545455), wk =   0.0721262
        k(   34) = (   0.0909091   0.3636364   0.3636364), wk =   0.0360631
        k(   35) = (   0.0909091   0.3636364   0.4545455), wk =   0.0721262
        k(   36) = (   0.0909091   0.4545455   0.4545455), wk =   0.0360631
        k(   37) = (   0.1818182   0.1818182   0.1818182), wk =   0.0120210
        k(   38) = (   0.1818182   0.1818182   0.2727273), wk =   0.0360631
        k(   39) = (   0.1818182   0.1818182   0.3636364), wk =   0.0360631
        k(   40) = (   0.1818182   0.1818182   0.4545455), wk =   0.0360631
        k(   41) = (   0.1818182   0.2727273   0.2727273), wk =   0.0360631
        k(   42) = (   0.1818182   0.2727273   0.3636364), wk =   0.0721262
        k(   43) = (   0.1818182   0.2727273   0.4545455), wk =   0.0721262
        k(   44) = (   0.1818182   0.3636364   0.3636364), wk =   0.0360631
        k(   45) = (   0.1818182   0.3636364   0.4545455), wk =   0.0721262
        k(   46) = (   0.1818182   0.4545455   0.4545455), wk =   0.0360631
        k(   47) = (   0.2727273   0.2727273   0.2727273), wk =   0.0120210
        k(   48) = (   0.2727273   0.2727273   0.3636364), wk =   0.0360631
        k(   49) = (   0.2727273   0.2727273   0.4545455), wk =   0.0360631
        k(   50) = (   0.2727273   0.3636364   0.3636364), wk =   0.0360631
        k(   51) = (   0.2727273   0.3636364   0.4545455), wk =   0.0721262
        k(   52) = (   0.2727273   0.4545455   0.4545455), wk =   0.0360631
        k(   53) = (   0.3636364   0.3636364   0.3636364), wk =   0.0120210
        k(   54) = (   0.3636364   0.3636364   0.4545455), wk =   0.0360631
        k(   55) = (   0.3636364   0.4545455   0.4545455), wk =   0.0360631
        k(   56) = (   0.4545455   0.4545455   0.4545455), wk =   0.0120210

     Dense  grid:   209233 G-vectors     FFT dimensions: (  75,  75,  75)

     Smooth grid:    31919 G-vectors     FFT dimensions: (  40,  40,  40)

     Estimated max dynamical RAM per process >     117.03 MB

     Estimated total dynamical RAM >     936.25 MB

     Check: negative core charge=   -0.000002

     Initial potential from superposition of free atoms

     starting charge      26.9995, renormalised to      28.0000

     negative rho (up, down):  1.347E-03 0.000E+00
     Starting wfcs are   23 randomized atomic wfcs
     Checking if some PAW data can be deallocated... 

     total cpu time spent up to now is        1.4 secs

     per-process dynamical memory:   142.7 Mb

     Self-consistent Calculation

     iteration #  1     ecut=   124.00 Ry     beta= 0.70
     Davidson diagonalization with overlap
     ethr =  1.00E-02,  avg # of iterations =  2.1

     negative rho (up, down):  7.937E-05 0.000E+00

     total cpu time spent up to now is        2.5 secs

     total energy              =    -434.89047275 Ry
     estimated scf accuracy    <      17.46535633 Ry

     iteration #  2     ecut=   124.00 Ry     beta= 0.70
     Davidson diagonalization with overlap
     ethr =  1.00E-02,  avg # of iterations =  6.0

     negative rho (up, down):  2.353E-05 0.000E+00

     total cpu time spent up to now is        4.0 secs

     total energy              =    -448.51249463 Ry
     estimated scf accuracy    <      66.10195194 Ry

     iteration #  3     ecut=   124.00 Ry     beta= 0.70
     Davidson diagonalization with overlap
     ethr =  1.00E-02,  avg # of iterations =  3.1

     negative rho (up, down):  2.377E-04 0.000E+00

     total cpu time spent up to now is        5.2 secs

     total energy              =    -448.59203340 Ry
     estimated scf accuracy    <      16.77106202 Ry

     iteration #  4     ecut=   124.00 Ry     beta= 0.70
     Davidson diagonalization with overlap
     ethr =  1.00E-02,  avg # of iterations =  2.2

     negative rho (up, down):  2.766E-04 0.000E+00

     total cpu time spent up to now is        6.2 secs

     total energy              =    -449.11252552 Ry
     estimated scf accuracy    <       4.68111793 Ry

     iteration #  5     ecut=   124.00 Ry     beta= 0.70
     Davidson diagonalization with overlap
     ethr =  1.00E-02,  avg # of iterations =  1.0

     negative rho (up, down):  3.285E-04 0.000E+00

     total cpu time spent up to now is        7.1 secs

     total energy              =    -449.11683000 Ry
     estimated scf accuracy    <       4.27451567 Ry

     iteration #  6     ecut=   124.00 Ry     beta= 0.70
     Davidson diagonalization with overlap
     ethr =  1.00E-02,  avg # of iterations =  1.0

     negative rho (up, down):  1.118E-03 0.000E+00

     total cpu time spent up to now is        8.0 secs

     total energy              =    -447.89068457 Ry
     estimated scf accuracy    <       4.50163493 Ry

     iteration #  7     ecut=   124.00 Ry     beta= 0.70
     Davidson diagonalization with overlap
     ethr =  1.00E-02,  avg # of iterations =  3.4

     negative rho (up, down):  1.015E-03 0.000E+00

     total cpu time spent up to now is        9.0 secs

     total energy              =    -448.58840447 Ry
     estimated scf accuracy    <       3.89651472 Ry

     iteration #  8     ecut=   124.00 Ry     beta= 0.70
     Davidson diagonalization with overlap
     ethr =  1.00E-02,  avg # of iterations =  1.0

     negative rho (up, down):  7.976E-04 0.000E+00

     total cpu time spent up to now is        9.9 secs

     total energy              =    -448.43997417 Ry
     estimated scf accuracy    <       1.27715295 Ry

     iteration #  9     ecut=   124.00 Ry     beta= 0.70
     Davidson diagonalization with overlap
     ethr =  4.56E-03,  avg # of iterations =  1.9

     negative rho (up, down):  7.977E-04 0.000E+00

     total cpu time spent up to now is       10.8 secs

     total energy              =    -448.60539805 Ry
     estimated scf accuracy    <       0.26863249 Ry

     iteration # 10     ecut=   124.00 Ry     beta= 0.70
     Davidson diagonalization with overlap
     ethr =  9.59E-04,  avg # of iterations =  1.3

     negative rho (up, down):  8.075E-04 0.000E+00

     total cpu time spent up to now is       11.7 secs

     total energy              =    -448.61289738 Ry
     estimated scf accuracy    <       0.28159432 Ry

     iteration # 11     ecut=   124.00 Ry     beta= 0.70
     Davidson diagonalization with overlap
     ethr =  9.59E-04,  avg # of iterations =  1.0

     negative rho (up, down):  7.617E-04 0.000E+00

     total cpu time spent up to now is       12.6 secs

     total energy              =    -448.67957078 Ry
     estimated scf accuracy    <       0.34549008 Ry

     iteration # 12     ecut=   124.00 Ry     beta= 0.70
     Davidson diagonalization with overlap
     ethr =  9.59E-04,  avg # of iterations =  1.8

     negative rho (up, down):  7.932E-04 0.000E+00

     total cpu time spent up to now is       13.6 secs

     total energy              =    -448.62277485 Ry
     estimated scf accuracy    <       1.28404054 Ry

     iteration # 13     ecut=   124.00 Ry     beta= 0.70
     Davidson diagonalization with overlap
     ethr =  9.59E-04,  avg # of iterations =  1.2

     negative rho (up, down):  9.274E-04 0.000E+00

     total cpu time spent up to now is       14.4 secs

     total energy              =    -448.63537755 Ry
     estimated scf accuracy    <       0.58154385 Ry

     iteration # 14     ecut=   124.00 Ry     beta= 0.70
     Davidson diagonalization with overlap
     ethr =  9.59E-04,  avg # of iterations =  1.0

     negative rho (up, down):  1.025E-03 0.000E+00

     total cpu time spent up to now is       15.3 secs

     total energy              =    -448.61055071 Ry
     estimated scf accuracy    <       0.50368914 Ry

     iteration # 15     ecut=   124.00 Ry     beta= 0.70
     Davidson diagonalization with overlap
     ethr =  9.59E-04,  avg # of iterations =  1.0

     negative rho (up, down):  1.032E-03 0.000E+00

     total cpu time spent up to now is       16.2 secs

     total energy              =    -448.61143942 Ry
     estimated scf accuracy    <       0.31963621 Ry

     iteration # 16     ecut=   124.00 Ry     beta= 0.70
     Davidson diagonalization with overlap
     ethr =  9.59E-04,  avg # of iterations =  1.0

     negative rho (up, down):  1.077E-03 0.000E+00

     total cpu time spent up to now is       17.1 secs

     total energy              =    -448.59313187 Ry
     estimated scf accuracy    <       0.28283031 Ry

     iteration # 17     ecut=   124.00 Ry     beta= 0.70
     Davidson diagonalization with overlap
     ethr =  9.59E-04,  avg # of iterations =  1.0

     negative rho (up, down):  1.074E-03 0.000E+00

     total cpu time spent up to now is       18.0 secs

     total energy              =    -448.60188466 Ry
     estimated scf accuracy    <       0.07727334 Ry

     iteration # 18     ecut=   124.00 Ry     beta= 0.70
     Davidson diagonalization with overlap
     ethr =  2.76E-04,  avg # of iterations =  1.6

     negative rho (up, down):  9.925E-04 0.000E+00

     total cpu time spent up to now is       18.9 secs

     total energy              =    -448.58361171 Ry
     estimated scf accuracy    <       0.14906513 Ry

     iteration # 19     ecut=   124.00 Ry     beta= 0.70
     Davidson diagonalization with overlap
     ethr =  2.76E-04,  avg # of iterations =  1.1

     negative rho (up, down):  9.436E-04 0.000E+00

     total cpu time spent up to now is       19.8 secs

     total energy              =    -448.59412596 Ry
     estimated scf accuracy    <       0.04848601 Ry

     iteration # 20     ecut=   124.00 Ry     beta= 0.70
     Davidson diagonalization with overlap
     ethr =  1.73E-04,  avg # of iterations =  1.1

     negative rho (up, down):  1.023E-03 0.000E+00

     total cpu time spent up to now is       20.7 secs

     total energy              =    -448.57755582 Ry
     estimated scf accuracy    <       0.17402918 Ry

     iteration # 21     ecut=   124.00 Ry     beta= 0.70
     Davidson diagonalization with overlap
     ethr =  1.73E-04,  avg # of iterations =  2.1

     negative rho (up, down):  1.012E-03 0.000E+00

     total cpu time spent up to now is       21.6 secs

     total energy              =    -448.58650556 Ry
     estimated scf accuracy    <       0.00384583 Ry

     iteration # 22     ecut=   124.00 Ry     beta= 0.70
     Davidson diagonalization with overlap
     ethr =  1.37E-05,  avg # of iterations =  4.6

     negative rho (up, down):  1.004E-03 0.000E+00

     total cpu time spent up to now is       22.7 secs

     total energy              =    -448.58691254 Ry
     estimated scf accuracy    <       0.00198474 Ry

     iteration # 23     ecut=   124.00 Ry     beta= 0.70
     Davidson diagonalization with overlap
     ethr =  7.09E-06,  avg # of iterations =  1.5

     negative rho (up, down):  1.006E-03 0.000E+00

     total cpu time spent up to now is       23.6 secs

     total energy              =    -448.58700272 Ry
     estimated scf accuracy    <       0.00176934 Ry

     iteration # 24     ecut=   124.00 Ry     beta= 0.70
     Davidson diagonalization with overlap
     ethr =  6.32E-06,  avg # of iterations =  1.0

     negative rho (up, down):  9.532E-04 0.000E+00

     total cpu time spent up to now is       24.5 secs

     total energy              =    -448.58622430 Ry
     estimated scf accuracy    <       0.00189335 Ry

     iteration # 25     ecut=   124.00 Ry     beta= 0.70
     Davidson diagonalization with overlap
     ethr =  6.32E-06,  avg # of iterations =  2.5

     negative rho (up, down):  9.519E-04 0.000E+00

     total cpu time spent up to now is       25.5 secs

     total energy              =    -448.58664002 Ry
     estimated scf accuracy    <       0.00120785 Ry

     iteration # 26     ecut=   124.00 Ry     beta= 0.70
     Davidson diagonalization with overlap
     ethr =  4.31E-06,  avg # of iterations =  1.0

     negative rho (up, down):  9.350E-04 0.000E+00

     total cpu time spent up to now is       26.4 secs

     total energy              =    -448.58685540 Ry
     estimated scf accuracy    <       0.00115497 Ry

     iteration # 27     ecut=   124.00 Ry     beta= 0.70
     Davidson diagonalization with overlap
     ethr =  4.12E-06,  avg # of iterations =  2.0

     negative rho (up, down):  9.665E-04 0.000E+00

     total cpu time spent up to now is       27.4 secs

     total energy              =    -448.58628946 Ry
     estimated scf accuracy    <       0.00358735 Ry

     iteration # 28     ecut=   124.00 Ry     beta= 0.70
     Davidson diagonalization with overlap
     ethr =  4.12E-06,  avg # of iterations =  2.0

     negative rho (up, down):  9.722E-04 0.000E+00

     total cpu time spent up to now is       28.3 secs

     total energy              =    -448.58652077 Ry
     estimated scf accuracy    <       0.00004729 Ry

     iteration # 29     ecut=   124.00 Ry     beta= 0.70
     Davidson diagonalization with overlap
     ethr =  1.69E-07,  avg # of iterations =  4.7

     negative rho (up, down):  9.640E-04 0.000E+00

     total cpu time spent up to now is       29.5 secs

     total energy              =    -448.58653251 Ry
     estimated scf accuracy    <       0.00024121 Ry

     iteration # 30     ecut=   124.00 Ry     beta= 0.70
     Davidson diagonalization with overlap
     ethr =  1.69E-07,  avg # of iterations =  3.8

     negative rho (up, down):  9.643E-04 0.000E+00

     total cpu time spent up to now is       30.6 secs

     total energy              =    -448.58655217 Ry
     estimated scf accuracy    <       0.00000018 Ry

     iteration # 31     ecut=   124.00 Ry     beta= 0.70
     Davidson diagonalization with overlap
     ethr =  6.52E-10,  avg # of iterations =  5.9

     negative rho (up, down):  9.640E-04 0.000E+00

     total cpu time spent up to now is       32.0 secs

     total energy              =    -448.58655245 Ry
     estimated scf accuracy    <       0.00000124 Ry

     iteration # 32     ecut=   124.00 Ry     beta= 0.70
     Davidson diagonalization with overlap
     ethr =  6.52E-10,  avg # of iterations =  4.0

     negative rho (up, down):  9.638E-04 0.000E+00

     total cpu time spent up to now is       33.0 secs

     total energy              =    -448.58655251 Ry
     estimated scf accuracy    <       0.00000015 Ry

     iteration # 33     ecut=   124.00 Ry     beta= 0.70
     Davidson diagonalization with overlap
     ethr =  5.50E-10,  avg # of iterations =  2.0

     negative rho (up, down):  9.641E-04 0.000E+00

     total cpu time spent up to now is       34.0 secs

     total energy              =    -448.58655246 Ry
     estimated scf accuracy    <       0.00000035 Ry

     iteration # 34     ecut=   124.00 Ry     beta= 0.70
     Davidson diagonalization with overlap
     ethr =  5.50E-10,  avg # of iterations =  2.3

     negative rho (up, down):  9.642E-04 0.000E+00

     total cpu time spent up to now is       34.9 secs

     total energy              =    -448.58655249 Ry
     estimated scf accuracy    <       0.00000002 Ry

     iteration # 35     ecut=   124.00 Ry     beta= 0.70
     Davidson diagonalization with overlap
     ethr =  7.32E-11,  avg # of iterations =  3.8

     negative rho (up, down):  9.641E-04 0.000E+00

     total cpu time spent up to now is       36.0 secs

     total energy              =    -448.58655249 Ry
     estimated scf accuracy    <       0.00000003 Ry

     iteration # 36     ecut=   124.00 Ry     beta= 0.70
     Davidson diagonalization with overlap
     ethr =  7.32E-11,  avg # of iterations =  2.8

     negative rho (up, down):  9.642E-04 0.000E+00

     total cpu time spent up to now is       36.9 secs

     End of self-consistent calculation

          k = 0.0000 0.0000 0.0000 (  3911 PWs)   bands (ev):

   -69.2103 -39.1517 -35.2713 -35.2713 -35.2713 -15.2460 -15.2460 -15.2460
    10.1528  13.8639  13.8639  16.6568  16.6568  16.6568  18.9983  18.9983
    20.9366  20.9366

          k = 0.0000 0.0000 0.0909 (  3947 PWs)   bands (ev):

   -69.2100 -39.1496 -35.2739 -35.2710 -35.2710 -15.2752 -15.2442 -15.2442
    10.3257  13.9470  13.9536  16.6441  16.6441  16.6947  18.8927  19.0380
    20.6858  20.6858

          k = 0.0000 0.0000 0.1818 (  3964 PWs)   bands (ev):

   -69.2093 -39.1439 -35.2806 -35.2699 -35.2699 -15.3532 -15.2395 -15.2395
    10.8272  14.1866  14.1906  16.6148  16.6148  16.8008  18.5875  19.1279
    20.1022  20.1022

          k = 0.0000 0.0000 0.2727 (  3988 PWs)   bands (ev):

   -69.2083 -39.1364 -35.2894 -35.2686 -35.2686 -15.4540 -15.2334 -15.2334
    11.6057  14.4523  14.5738  16.5899  16.5899  16.9516  18.1202  19.1616
    19.4564  19.4564

          k = 0.0000 0.0000 0.3636 (  4008 PWs)   bands (ev):

   -69.2074 -39.1296 -35.2974 -35.2674 -35.2674 -15.5455 -15.2277 -15.2277
    12.5660  14.5652  15.0485  16.5850  16.5850  17.1052  17.5653  18.9275
    18.9275  18.9715

          k = 0.0000 0.0000 0.4545 (  3992 PWs)   bands (ev):

   -69.2069 -39.1255 -35.3021 -35.2666 -35.2666 -15.5993 -15.2243 -15.2243
    13.5347  14.3044  15.4744  16.5939  16.5939  17.0903  17.2053  18.6282
    18.6282  18.6588

          k = 0.0000 0.0909 0.0909 (  3966 PWs)   bands (ev):

   -69.2097 -39.1473 -35.2748 -35.2724 -35.2706 -15.2763 -15.2701 -15.2424
    10.4951  14.0265  14.0436  16.5617  16.6235  16.7909  18.8775  19.0087
    20.4104  20.4353

          k = 0.0000 0.0909 0.1818 (  3978 PWs)   bands (ev):

   -69.2090 -39.1413 -35.2811 -35.2724 -35.2696 -15.3507 -15.2674 -15.2375
    10.9856  14.2440  14.2906  16.4813  16.5732  16.9084  18.6426  19.0872
    19.8667  19.9001

          k = 0.0000 0.0909 0.2727 (  3995 PWs)   bands (ev):

   -69.2080 -39.1334 -35.2900 -35.2716 -35.2682 -15.4505 -15.2605 -15.2310
    11.7434  14.5128  14.6445  16.4377  16.5167  16.9935  18.2447  19.0577
    19.3653  19.4002

          k = 0.0000 0.0909 0.3636 (  3991 PWs)   bands (ev):

   -69.2071 -39.1261 -35.2982 -35.2709 -35.2670 -15.5410 -15.2540 -15.2251
    12.6707  14.6170  15.0808  16.4435  16.4656  16.9997  17.7899  18.6460
    19.0665  19.2133

          k = 0.0000 0.0909 0.4545 (  3999 PWs)   bands (ev):

   -69.2066 -39.1218 -35.3030 -35.2704 -35.2663 -15.5943 -15.2502 -15.2216
    13.5943  14.3519  15.4692  16.3968  16.4805  16.9451  17.4633  18.3527
    18.9324  19.0197

          k = 0.0000 0.1818 0.1818 (  3972 PWs)   bands (ev):

   -69.2083 -39.1343 -35.2840 -35.2772 -35.2686 -15.3518 -15.3342 -15.2320
    11.4401  14.3900  14.5687  16.3070  16.4778  16.9857  18.6949  19.0459
    19.3497  19.5759

          k = 0.0000 0.1818 0.2727 (  4003 PWs)   bands (ev):

   -69.2073 -39.1252 -35.2920 -35.2794 -35.2673 -15.4412 -15.3324 -15.2248
    12.1275  14.5565  14.9462  16.1858  16.3868  16.9101  18.5209  18.8014
    19.2048  19.3971

          k = 0.0000 0.1818 0.3636 (  3997 PWs)   bands (ev):

   -69.2064 -39.1168 -35.3004 -35.2802 -35.2661 -15.5290 -15.3241 -15.2182
    12.9354  14.5943  15.3322  16.1499  16.3572  16.7002  18.2182  18.4617
    19.3303  19.4171

          k = 0.0000 0.1818 0.4545 (  3990 PWs)   bands (ev):

   -69.2059 -39.1118 -35.3055 -35.2806 -35.2654 -15.5808 -15.3190 -15.2143
    13.6841  14.3630  15.6125  16.2009  16.3901  16.4819  18.0481  18.2166
    19.3519  19.5140

          k = 0.0000 0.2727 0.2727 (  4000 PWs)   bands (ev):

   -69.2063 -39.1144 -35.2962 -35.2880 -35.2661 -15.4376 -15.4171 -15.2167
    12.6688  14.5348  15.3963  15.9775  16.3399  16.6425  18.5789  18.7502
    19.1053  19.5704

          k = 0.0000 0.2727 0.3636 (  3993 PWs)   bands (ev):

   -69.2054 -39.1045 -35.3035 -35.2923 -35.2649 -15.5134 -15.4148 -15.2091
    13.2266  14.4166  15.8407  15.8678  16.3180  16.4951  18.3958  18.7292
    19.2749  19.8465

          k = 0.0000 0.2727 0.4545 (  3996 PWs)   bands (ev):

   -69.2049 -39.0986 -35.3088 -35.2939 -35.2643 -15.5632 -15.4082 -15.2047
    13.6460  14.2282  15.8808  16.0551  16.0845  16.8466  18.1510  18.6845
    19.4869  20.0942

          k = 0.0000 0.3636 0.3636 (  4002 PWs)   bands (ev):

   -69.2046 -39.0932 -35.3073 -35.3025 -35.2639 -15.5040 -15.4922 -15.2008
    13.4198  14.2078  15.6811  15.9708  16.4456  16.8939  18.5222  19.0881
    19.1103  20.2512

          k = 0.0000 0.3636 0.4545 (  3999 PWs)   bands (ev):

   -69.2041 -39.0865 -35.3119 -35.3062 -35.2632 -15.5469 -15.4893 -15.1958
    13.5039  14.0682  15.6294  15.7309  16.8140  17.5391  18.2827  19.1483
    19.3230  20.5545

          k = 0.0000 0.4545 0.4545 (  3998 PWs)   bands (ev):

   -69.2035 -39.0793 -35.3139 -35.3133 -35.2626 -15.5379 -15.5363 -15.1906
    13.3946  13.9723  15.5085  15.5425  17.5106  17.9878  18.6670  18.8520
    19.4119  20.8262

          k = 0.0909 0.0909 0.0909 (  3959 PWs)   bands (ev):

   -69.2095 -39.1450 -35.2744 -35.2744 -35.2711 -15.2768 -15.2683 -15.2683
    10.6615  14.1185  14.1185  16.5391  16.5391  16.8681  18.9295  18.9295
    19.9929  20.6652

          k = 0.0909 0.0909 0.1818 (  3966 PWs)   bands (ev):

   -69.2087 -39.1386 -35.2813 -35.2733 -35.2710 -15.3482 -15.2670 -15.2635
    11.1426  14.3361  14.3554  16.4287  16.4796  16.9503  18.7012  19.0493
    19.5188  20.0789

          k = 0.0909 0.0909 0.2727 (  3992 PWs)   bands (ev):

   -69.2077 -39.1303 -35.2905 -35.2720 -35.2707 -15.4470 -15.2590 -15.2572
    11.8826  14.6168  14.6736  16.3700  16.3987  16.9454  18.3564  19.0006
    19.3237  19.4428

          k = 0.0909 0.0909 0.3636 (  3994 PWs)   bands (ev):

   -69.2069 -39.1227 -35.2989 -35.2707 -35.2704 -15.5367 -15.2515 -15.2514
    12.7810  14.7008  15.0813  16.2989  16.4005  16.8595  17.9712  18.7163
    18.9369  19.4203

          k = 0.0909 0.0909 0.4545 (  4007 PWs)   bands (ev):

   -69.2063 -39.1181 -35.3038 -35.2702 -35.2699 -15.5895 -15.2480 -15.2470
    13.6656  14.4197  15.4383  16.1745  16.5156  16.7699  17.6949  18.4315
    18.6598  19.5237

          k = 0.0909 0.1818 0.1818 (  3984 PWs)   bands (ev):

   -69.2080 -39.1314 -35.2836 -35.2780 -35.2712 -15.3485 -15.3323 -15.2593
    11.5926  14.4938  14.6188  16.2700  16.3702  16.9131  18.7644  19.0172
    19.2359  19.7949

          k = 0.0909 0.1818 0.2727 (  3994 PWs)   bands (ev):

   -69.2070 -39.1221 -35.2920 -35.2795 -35.2705 -15.4379 -15.3300 -15.2517
    12.2705  14.6757  14.9647  16.1421  16.2715  16.7315  18.6110  18.9229
    19.2408  19.4560

          k = 0.0909 0.1818 0.3636 (  4001 PWs)   bands (ev):

   -69.2061 -39.1134 -35.3007 -35.2800 -35.2697 -15.5252 -15.3216 -15.2446
    13.0616  14.7215  15.2859  16.0686  16.2634  16.5479  18.3725  18.5771
    19.1013  19.7200

          k = 0.0909 0.1818 0.4545 (  3993 PWs)   bands (ev):

   -69.2056 -39.1083 -35.3060 -35.2802 -35.2692 -15.5767 -15.3165 -15.2403
    13.7875  14.4740  15.5175  16.0018  16.3647  16.4909  18.1992  18.2872
    18.8992  20.1084

          k = 0.0909 0.2727 0.2727 (  3989 PWs)   bands (ev):

   -69.2061 -39.1113 -35.2957 -35.2883 -35.2695 -15.4338 -15.4152 -15.2433
    12.8158  14.6587  15.4058  15.9390  16.2101  16.4306  18.6963  18.9064
    19.0874  19.7048

          k = 0.0909 0.2727 0.3636 (  3985 PWs)   bands (ev):

   -69.2052 -39.1013 -35.3033 -35.2922 -35.2686 -15.5102 -15.4124 -15.2356
    13.3704  14.5419  15.7742  15.8302  16.2030  16.3600  18.4781  18.8194
    19.1583  20.1173

          k = 0.0909 0.2727 0.4545 (  4006 PWs)   bands (ev):

   -69.2047 -39.0954 -35.3089 -35.2935 -35.2680 -15.5599 -15.4059 -15.2309
    13.7756  14.3545  15.7972  15.8477  16.1550  16.7541  18.1884  18.7888
    19.0873  20.6003

          k = 0.0909 0.3636 0.3636 (  3992 PWs)   bands (ev):

   -69.2043 -39.0901 -35.3068 -35.3024 -35.2675 -15.5010 -15.4902 -15.2272
    13.5656  14.3325  15.6507  15.8817  16.4032  16.7209  18.4860  18.9868
    19.1887  20.5637

          k = 0.0909 0.3636 0.4545 (  4002 PWs)   bands (ev):

   -69.2038 -39.0835 -35.3116 -35.3057 -35.2669 -15.5444 -15.4872 -15.2223
    13.6402  14.1966  15.5970  15.6797  16.7391  17.3611  18.2404  18.9495
    19.2816  20.7958

          k = 0.0909 0.4545 0.4545 (  3993 PWs)   bands (ev):

   -69.2033 -39.0764 -35.3134 -35.3128 -35.2662 -15.5359 -15.5344 -15.2171
    13.5314  14.1009  15.4861  15.5157  17.4523  17.8446  18.4160  18.5135
    19.4900  21.0194

          k = 0.1818 0.1818 0.1818 (  3989 PWs)   bands (ev):

   -69.2072 -39.1238 -35.2825 -35.2825 -35.2757 -15.3446 -15.3274 -15.3274
    12.0266  14.7610  14.7610  16.1713  16.1713  16.6504  18.9329  18.9329
    19.2930  20.0375

          k = 0.1818 0.1818 0.2727 (  3992 PWs)   bands (ev):

   -69.2063 -39.1137 -35.2922 -35.2810 -35.2777 -15.4290 -15.3257 -15.3208
    12.6697  14.9702  15.0333  16.0341  16.0388  16.3368  18.8050  19.0078
    19.4274  19.5989

          k = 0.1818 0.1818 0.3636 (  3994 PWs)   bands (ev):

   -69.2054 -39.1044 -35.3017 -35.2796 -35.2790 -15.5149 -15.3149 -15.3148
    13.3929  15.0074  15.2036  15.8991  16.0682  16.2650  18.6704  18.7433
    18.9524  20.1601

          k = 0.1818 0.1818 0.4545 (  3986 PWs)   bands (ev):

   -69.2049 -39.0989 -35.3073 -35.2797 -35.2788 -15.5656 -15.3112 -15.3084
    14.0172  14.6821  15.3921  15.7788  16.1845  16.4450  18.3322  18.5953
    18.6807  20.5299

          k = 0.1818 0.2727 0.2727 (  3994 PWs)   bands (ev):

   -69.2053 -39.1027 -35.2945 -35.2893 -35.2787 -15.4236 -15.4100 -15.3143
    13.2274  14.9964  15.4273  15.8397  15.9189  15.9976  18.8252  19.0096
    19.3285  20.0778

          k = 0.1818 0.2727 0.3636 (  3988 PWs)   bands (ev):

   -69.2045 -39.0926 -35.3031 -35.2918 -35.2783 -15.5016 -15.4059 -15.3060
    13.7701  14.8707  15.5750  15.7253  15.9737  16.0870  18.5906  18.8383
    19.2207  20.3803

          k = 0.1818 0.2727 0.4545 (  3991 PWs)   bands (ev):

   -69.2039 -39.0866 -35.3091 -35.2925 -35.2779 -15.5511 -15.3998 -15.3010
    14.1253  14.6660  15.5488  15.6706  16.0602  16.5356  18.2319  18.6757
    19.1298  20.6015

          k = 0.1818 0.3636 0.3636 (  3990 PWs)   bands (ev):

   -69.2036 -39.0817 -35.3055 -35.3023 -35.2773 -15.4928 -15.4851 -15.2978
    13.9820  14.6576  15.5747  15.6896  16.2719  16.2956  18.4622  18.6970
    19.4851  20.5436

          k = 0.1818 0.3636 0.4545 (  3993 PWs)   bands (ev):

   -69.2031 -39.0753 -35.3108 -35.3045 -35.2767 -15.5378 -15.4816 -15.2929
    14.0272  14.5323  15.5200  15.5675  16.4915  16.9250  18.1794  18.5402
    19.5617  20.7854

          k = 0.1818 0.4545 0.4545 (  4002 PWs)   bands (ev):

   -69.2026 -39.0685 -35.3120 -35.3116 -35.2760 -15.5303 -15.5293 -15.2880
    13.9234  14.4435  15.4329  15.4545  17.1746  17.2812  18.0690  18.2503
    19.7506  21.0766

          k = 0.2727 0.2727 0.2727 (  3998 PWs)   bands (ev):

   -69.2044 -39.0915 -35.2928 -35.2928 -35.2886 -15.4132 -15.4033 -15.4033
    13.7990  15.4441  15.4441  15.5182  15.7193  15.7193  18.8337  18.8337
    19.7984  19.7984

          k = 0.2727 0.2727 0.3636 (  3992 PWs)   bands (ev):

   -69.2035 -39.0812 -35.3030 -35.2913 -35.2908 -15.4904 -15.3973 -15.3971
    14.2965  15.1356  15.4426  15.6207  15.7209  15.9354  18.5785  18.6239
    19.6455  20.2948

          k = 0.2727 0.2727 0.4545 (  3990 PWs)   bands (ev):

   -69.2030 -39.0751 -35.3095 -35.2915 -35.2905 -15.5396 -15.3934 -15.3900
    14.5098  14.9115  15.4302  15.5701  15.9004  16.3710  18.1751  18.4970
    19.5915  20.6353

          k = 0.2727 0.3636 0.3636 (  3988 PWs)   bands (ev):

   -69.2027 -39.0707 -35.3037 -35.3021 -35.2902 -15.4821 -15.4783 -15.3891
    14.5958  15.0027  15.4918  15.5872  15.8170  16.0595  18.4143  18.4173
    19.9497  20.4947

          k = 0.2727 0.3636 0.4545 (  3992 PWs)   bands (ev):

   -69.2021 -39.0645 -35.3099 -35.3030 -35.2896 -15.5291 -15.4742 -15.3843
    14.5794  14.9171  15.4521  15.5076  16.1032  16.4659  18.0772  18.3313
    20.0121  20.8207

          k = 0.2727 0.4545 0.4545 (  4000 PWs)   bands (ev):

   -69.2016 -39.0581 -35.3102 -35.3100 -35.2888 -15.5231 -15.5225 -15.3799
    14.5067  14.8769  15.3854  15.4135  16.6254  16.6526  17.9060  18.1706
    20.1898  21.1137

          k = 0.3636 0.3636 0.3636 (  3999 PWs)   bands (ev):

   -69.2018 -39.0606 -35.3021 -35.3021 -35.3018 -15.4723 -15.4721 -15.4721
    14.9948  15.3300  15.4470  15.4470  15.8146  15.8146  18.2411  18.2411
    20.5003  20.5003

          k = 0.3636 0.3636 0.4545 (  4008 PWs)   bands (ev):

   -69.2013 -39.0545 -35.3090 -35.3018 -35.3012 -15.5211 -15.4684 -15.4664
    14.9932  15.1653  15.4767  15.6074  15.7984  16.1605  17.9824  18.1639
    20.5130  20.9127

          k = 0.3636 0.4545 0.4545 (  3994 PWs)   bands (ev):

   -69.2008 -39.0486 -35.3085 -35.3085 -35.3006 -15.5164 -15.5163 -15.4633
    15.1009  15.2496  15.3888  15.4963  16.0924  16.1437  17.8651  18.0301
    20.7354  21.1431

          k = 0.4545 0.4545 0.4545 (  3972 PWs)   bands (ev):

   -69.2003 -39.0430 -35.3076 -35.3075 -35.3075 -15.5126 -15.5126 -15.5122
    15.3317  15.4752  15.4752  15.7776  15.7776  15.8004  17.8552  17.8552
    21.1598  21.1598

     the Fermi energy is    17.5936 ev

!    total energy              =    -448.58655249 Ry
     estimated scf accuracy    <          4.6E-09 Ry
     smearing contrib. (-TS)   =       0.00005040 Ry
     internal energy E=F+TS    =    -448.58660289 Ry

     The total energy is F=E-TS. E is the sum of the following terms:
     one-electron contribution =    -151.34258882 Ry
     hartree contribution      =      91.61754586 Ry
     xc contribution           =     -52.88701341 Ry
     ewald contribution        =    -259.82070277 Ry
     one-center paw contrib.   =     -76.15384375 Ry

     convergence has been achieved in  36 iterations

     negative rho (up, down):  9.642E-04 0.000E+00

     Forces acting on atoms (cartesian axes, Ry/au):

     atom    1 type  1   force =     0.00000000    0.00000000    0.00000000
     atom    2 type  2   force =     0.00000000    0.00000000    0.00000000

     Total force =     0.000000     Total SCF correction =     0.000000


     Computing stress (Cartesian axis) and pressure


     negative rho (up, down):  9.642E-04 0.000E+00
          total   stress  (Ry/bohr**3)                   (kbar)     P=       31.33
   0.00021296   0.00000000   0.00000000           31.33        0.00        0.00
   0.00000000   0.00021296   0.00000000            0.00       31.33        0.00
   0.00000000   0.00000000   0.00021296            0.00        0.00       31.33


     BFGS Geometry Optimization
     Energy error            =      2.0E-03 Ry
     Gradient error          =      0.0E+00 Ry/Bohr
     Cell gradient error     =      5.8E+01 kbar

     number of scf cycles    =   1
     number of bfgs steps    =   0

     enthalpy           new  =    -448.4826798158 Ry

     new trust radius        =       0.0257517775 bohr
     new conv_thr            =       0.0000000100 Ry

     new unit-cell volume =    166.25356 a.u.^3 (    24.63624 Ang^3 )
     density =      6.99043 g/cm^3

CELL_PARAMETERS (alat=  5.55330037)
   0.990161011   0.000000000   0.000000000
   0.000000000   0.990161011   0.000000000
   0.000000000   0.000000000   0.990161011

ATOMIC_POSITIONS (crystal)
Fe               0.5000000000        0.5000000000        0.5000000000
Ti               0.0000000000        0.0000000000        0.0000000000



     Writing config-only to output data dir ./TiFe.save/ :
     XML data file
     NEW-OLD atomic charge density approx. for the potential
     New effective cutoffs (rho, wfc): 1770.54  126.47

     Check: negative core charge=   -0.000002

     negative rho (up, down):  9.505E-04 0.000E+00

     total cpu time spent up to now is       38.9 secs

     per-process dynamical memory:   152.8 Mb

     Self-consistent Calculation

     iteration #  1     ecut=   124.00 Ry     beta= 0.70
     Davidson diagonalization with overlap
     ethr =  1.00E-06,  avg # of iterations =  7.0

     Threshold (ethr) on eigenvalues was too large:
     Diagonalizing with lowered threshold

     Davidson diagonalization with overlap
     ethr =  9.41E-08,  avg # of iterations =  2.9

     negative rho (up, down):  9.549E-04 0.000E+00

     total cpu time spent up to now is       41.3 secs

     total energy              =    -448.58399582 Ry
     estimated scf accuracy    <       0.00002950 Ry

     iteration #  2     ecut=   124.00 Ry     beta= 0.70
     Davidson diagonalization with overlap
     ethr =  1.05E-07,  avg # of iterations =  3.6

     negative rho (up, down):  9.556E-04 0.000E+00

     total cpu time spent up to now is       42.4 secs

     total energy              =    -448.58430178 Ry
     estimated scf accuracy    <       0.00023753 Ry

     iteration #  3     ecut=   124.00 Ry     beta= 0.70
     Davidson diagonalization with overlap
     ethr =  1.05E-07,  avg # of iterations =  4.3

     negative rho (up, down):  9.560E-04 0.000E+00

     total cpu time spent up to now is       43.5 secs

     total energy              =    -448.58436767 Ry
     estimated scf accuracy    <       0.00045226 Ry

     iteration #  4     ecut=   124.00 Ry     beta= 0.70
     Davidson diagonalization with overlap
     ethr =  1.05E-07,  avg # of iterations =  3.7

     negative rho (up, down):  9.573E-04 0.000E+00

     total cpu time spent up to now is       44.5 secs

     total energy              =    -448.58439076 Ry
     estimated scf accuracy    <       0.00000519 Ry

     iteration #  5     ecut=   124.00 Ry     beta= 0.70
     Davidson diagonalization with overlap
     ethr =  1.85E-08,  avg # of iterations =  2.0

     negative rho (up, down):  9.570E-04 0.000E+00

     total cpu time spent up to now is       45.5 secs

     total energy              =    -448.58439158 Ry
     estimated scf accuracy    <       0.00000068 Ry

     iteration #  6     ecut=   124.00 Ry     beta= 0.70
     Davidson diagonalization with overlap
     ethr =  2.44E-09,  avg # of iterations =  2.2

     negative rho (up, down):  9.570E-04 0.000E+00

     total cpu time spent up to now is       46.4 secs

     total energy              =    -448.58439167 Ry
     estimated scf accuracy    <       0.00000004 Ry

     iteration #  7     ecut=   124.00 Ry     beta= 0.70
     Davidson diagonalization with overlap
     ethr =  1.39E-10,  avg # of iterations =  4.0

     negative rho (up, down):  9.571E-04 0.000E+00

     total cpu time spent up to now is       47.6 secs

     total energy              =    -448.58439169 Ry
     estimated scf accuracy    <       0.00000001 Ry

     iteration #  8     ecut=   124.00 Ry     beta= 0.70
     Davidson diagonalization with overlap
     ethr =  5.30E-11,  avg # of iterations =  1.5

     negative rho (up, down):  9.572E-04 0.000E+00

     total cpu time spent up to now is       48.5 secs

     End of self-consistent calculation

          k = 0.0000 0.0000 0.0000 (  3911 PWs)   bands (ev):

   -68.6158 -38.4768 -34.6781 -34.6781 -34.6781 -14.5618 -14.5618 -14.5618
    10.6763  14.3174  14.3174  17.2334  17.2334  17.2334  19.6603  19.6603
    21.6793  21.6793

          k = 0.0000 0.0000 0.0918 (  3947 PWs)   bands (ev):

   -68.6154 -38.4745 -34.6809 -34.6777 -34.6777 -14.5943 -14.5599 -14.5599
    10.8540  14.4034  14.4132  17.2203  17.2203  17.2728  19.5491  19.7024
    21.4170  21.4170

          k = 0.0000 0.0000 0.1836 (  3964 PWs)   bands (ev):

   -68.6146 -38.4684 -34.6881 -34.6765 -34.6765 -14.6809 -14.5549 -14.5549
    11.3688  14.6552  14.6635  17.1906  17.1906  17.3832  19.2280  19.7993
    20.8077  20.8077

          k = 0.0000 0.0000 0.2754 (  3988 PWs)   bands (ev):

   -68.6134 -38.4603 -34.6974 -34.6750 -34.6750 -14.7928 -14.5482 -14.5482
    12.1650  14.9549  15.0520  17.1658  17.1658  17.5402  18.7372  19.8428
    20.1341  20.1341

          k = 0.0000 0.0000 0.3672 (  4008 PWs)   bands (ev):

   -68.6124 -38.4529 -34.7060 -34.6735 -34.6735 -14.8942 -14.5421 -14.5421
    13.1415  15.0987  15.5444  17.1626  17.1626  17.7003  18.1553  19.5822
    19.5822  19.6596

          k = 0.0000 0.0000 0.4591 (  3992 PWs)   bands (ev):

   -68.6118 -38.4486 -34.7110 -34.6727 -34.6727 -14.9539 -14.5385 -14.5385
    14.1155  14.8682  15.9879  17.1734  17.1734  17.6572  17.8048  19.2695
    19.2695  19.3442

          k = 0.0000 0.0918 0.0918 (  3966 PWs)   bands (ev):

   -68.6151 -38.4721 -34.6820 -34.6791 -34.6773 -14.5958 -14.5885 -14.5579
    11.0280  14.4871  14.5077  17.1337  17.1991  17.3739  19.5333  19.6716
    21.1287  21.1556

          k = 0.0000 0.0918 0.1836 (  3978 PWs)   bands (ev):

   -68.6142 -38.4655 -34.6888 -34.6790 -34.6761 -14.6783 -14.5858 -14.5526
    11.5308  14.7152  14.7689  17.0499  17.1476  17.4972  19.2862  19.7563
    20.5629  20.5957

          k = 0.0000 0.0918 0.2754 (  3995 PWs)   bands (ev):

   -68.6131 -38.4569 -34.6983 -34.6782 -34.6746 -14.7889 -14.5782 -14.5456
    12.3047  15.0113  15.1334  17.0052  17.0901  17.5862  18.8682  19.7322
    20.0419  20.0743

          k = 0.0000 0.0918 0.3672 (  3991 PWs)   bands (ev):

   -68.6121 -38.4490 -34.7070 -34.6774 -34.6732 -14.8892 -14.5712 -14.5392
    13.2456  15.1490  15.5822  17.0129  17.0379  17.5917  18.3919  19.3031
    19.7269  19.8972

          k = 0.0000 0.0918 0.4591 (  3999 PWs)   bands (ev):

   -68.6115 -38.4443 -34.7122 -34.6770 -34.6723 -14.9482 -14.5670 -14.5354
    14.1716  14.9129  15.9848  16.9654  17.0539  17.5324  18.0522  19.0018
    19.5882  19.7023

          k = 0.0000 0.1836 0.1836 (  3972 PWs)   bands (ev):

   -68.6134 -38.4577 -34.6925 -34.6839 -34.6750 -14.6798 -14.6594 -14.5466
    11.9946  14.8687  15.0623  16.8673  17.0499  17.5792  19.3420  19.7125
    20.0260  20.2564

          k = 0.0000 0.1836 0.2754 (  4003 PWs)   bands (ev):

   -68.6123 -38.4476 -34.7010 -34.6866 -34.6735 -14.7785 -14.6578 -14.5388
    12.6921  15.0493  15.4594  16.7409  16.9583  17.5004  19.1578  19.4619
    19.8792  20.0704

          k = 0.0000 0.1836 0.3672 (  3997 PWs)   bands (ev):

   -68.6112 -38.4382 -34.7100 -34.6879 -34.6721 -14.8756 -14.6486 -14.5315
    13.5037  15.1102  15.8611  16.7043  16.9319  17.2799  18.8410  19.1118
    20.0182  20.0930

          k = 0.0000 0.1836 0.4591 (  3990 PWs)   bands (ev):

   -68.6106 -38.4327 -34.7154 -34.6885 -34.6713 -14.9328 -14.6429 -14.5272
    14.2425  14.9057  16.1483  16.7596  16.9724  17.0495  18.6647  18.8594
    20.0499  20.1959

          k = 0.0000 0.2754 0.2754 (  4000 PWs)   bands (ev):

   -68.6111 -38.4353 -34.7062 -34.6959 -34.6721 -14.7748 -14.7509 -14.5297
    13.2308  15.0316  15.9328  16.5232  16.9176  17.2205  19.2318  19.3965
    19.7791  20.2523

          k = 0.0000 0.2754 0.3672 (  3993 PWs)   bands (ev):

   -68.6101 -38.4241 -34.7140 -34.7013 -34.6708 -14.8579 -14.7486 -14.5214
    13.7731  14.9223  16.3987  16.4091  16.8807  17.0909  19.0445  19.3763
    19.9608  20.5419

          k = 0.0000 0.2754 0.4591 (  3996 PWs)   bands (ev):

   -68.6095 -38.4174 -34.7197 -34.7036 -34.6700 -14.9128 -14.7412 -14.5165
    14.1676  14.7489  16.4237  16.6049  16.6547  17.4657  18.7946  19.3272
    20.1923  20.8016

          k = 0.0000 0.3672 0.3672 (  4002 PWs)   bands (ev):

   -68.6091 -38.4110 -34.7188 -34.7127 -34.6696 -14.8474 -14.8336 -14.5121
    13.9344  14.7117  16.2143  16.5179  17.0305  17.5186  19.1828  19.7496
    19.7944  20.9651

          k = 0.0000 0.3672 0.4591 (  3999 PWs)   bands (ev):

   -68.6085 -38.4033 -34.7237 -34.7174 -34.6688 -14.8943 -14.8305 -14.5065
    13.9946  14.5753  16.1608  16.2670  17.4169  18.1879  18.9387  19.8169
    20.0211  21.2825

          k = 0.0000 0.4591 0.4591 (  3998 PWs)   bands (ev):

   -68.6079 -38.3949 -34.7263 -34.7254 -34.6681 -14.8841 -14.8822 -14.5006
    13.8703  14.4725  16.0346  16.0703  18.1330  18.6394  19.3532  19.5462
    20.0902  21.5666

          k = 0.0918 0.0918 0.0918 (  3959 PWs)   bands (ev):

   -68.6148 -38.4695 -34.6816 -34.6816 -34.6775 -14.5965 -14.5866 -14.5866
    11.1988  14.5850  14.5850  17.1104  17.1104  17.4556  19.5883  19.5883
    20.6931  21.3956

          k = 0.0918 0.0918 0.1836 (  3966 PWs)   bands (ev):

   -68.6139 -38.4625 -34.6891 -34.6804 -34.6774 -14.6755 -14.5854 -14.5814
    11.6915  14.8101  14.8387  16.9951  17.0489  17.5425  19.3479  19.7163
    20.1988  20.7839

          k = 0.0918 0.0918 0.2754 (  3992 PWs)   bands (ev):

   -68.6128 -38.4534 -34.6990 -34.6788 -34.6771 -14.7850 -14.5765 -14.5746
    12.4463  15.1249  15.1595  16.9351  16.9654  17.5375  18.9855  19.6707
    19.9987  20.1211

          k = 0.0918 0.0918 0.3672 (  3994 PWs)   bands (ev):

   -68.6118 -38.4450 -34.7079 -34.6773 -34.6769 -14.8843 -14.5684 -14.5683
    13.3562  15.2372  15.5820  16.8622  16.9692  17.4461  18.5817  19.3824
    19.5938  20.1061

          k = 0.0918 0.0918 0.4591 (  4007 PWs)   bands (ev):

   -68.6111 -38.4400 -34.7132 -34.6768 -34.6764 -14.9427 -14.5647 -14.5633
    14.2412  14.9810  15.9524  16.7328  17.0926  17.3509  18.2934  19.0942
    19.3046  20.2180

          k = 0.0918 0.1836 0.1836 (  3984 PWs)   bands (ev):

   -68.6131 -38.4545 -34.6920 -34.6851 -34.6776 -14.6762 -14.6574 -14.5769
    12.1507  14.9781  15.1140  16.8290  16.9360  17.5052  19.4154  19.6823
    19.9057  20.4875

          k = 0.0918 0.1836 0.2754 (  3994 PWs)   bands (ev):

   -68.6119 -38.4440 -34.7010 -34.6869 -34.6770 -14.7747 -14.6551 -14.5685
    12.8385  15.1736  15.4790  16.6960  16.8360  17.3148  19.2532  19.5895
    19.9147  20.1341

          k = 0.0918 0.1836 0.3672 (  4001 PWs)   bands (ev):

   -68.6109 -38.4344 -34.7104 -34.6877 -34.6762 -14.8713 -14.6458 -14.5607
    13.6325  15.2434  15.8117  16.6213  16.8315  17.1217  19.0013  19.2340
    19.7736  20.4153

          k = 0.0918 0.1836 0.4591 (  3993 PWs)   bands (ev):

   -68.6103 -38.4286 -34.7161 -34.6881 -34.6756 -14.9282 -14.6402 -14.5560
    14.3482  15.0211  16.0450  16.5565  16.9339  17.0703  18.8226  18.9343
    19.5652  20.8249

          k = 0.0918 0.2754 0.2754 (  3989 PWs)   bands (ev):

   -68.6108 -38.4317 -34.7056 -34.6964 -34.6760 -14.7705 -14.7488 -14.5592
    13.3824  15.1609  15.9424  16.4838  16.7792  17.0002  19.3544  19.5580
    19.7610  20.3957

          k = 0.0918 0.2754 0.3672 (  3985 PWs)   bands (ev):

   -68.6098 -38.4204 -34.7139 -34.7013 -34.6749 -14.8543 -14.7460 -14.5507
    13.9214  15.0528  16.3226  16.3759  16.7638  16.9468  19.1305  19.4702
    19.8366  20.8284

          k = 0.0918 0.2754 0.4591 (  4006 PWs)   bands (ev):

   -68.6092 -38.4136 -34.7198 -34.7031 -34.6742 -14.9091 -14.7388 -14.5455
    14.3009  14.8798  16.3367  16.3952  16.7259  17.3658  18.8345  19.4357
    19.7670  21.3316

          k = 0.0918 0.3672 0.3672 (  3992 PWs)   bands (ev):

   -68.6088 -38.4075 -34.7182 -34.7127 -34.6737 -14.8440 -14.8316 -14.5414
    14.0844  14.8416  16.1832  16.4258  16.9871  17.3375  19.1412  19.6664
    19.8538  21.2942

          k = 0.0918 0.3672 0.4591 (  4002 PWs)   bands (ev):

   -68.6082 -38.3998 -34.7234 -34.7169 -34.6730 -14.8916 -14.8282 -14.5359
    14.1348  14.7087  16.1279  16.2145  17.3413  18.0029  18.8914  19.6304
    19.9515  21.5318

          k = 0.0918 0.4591 0.4591 (  3993 PWs)   bands (ev):

   -68.6076 -38.3915 -34.7257 -34.7249 -34.6722 -14.8819 -14.8802 -14.5301
    14.0113  14.6062  16.0122  16.0433  18.0752  18.4991  19.0794  19.1888
    20.1704  21.7633

          k = 0.1836 0.1836 0.1836 (  3989 PWs)   bands (ev):

   -68.6122 -38.4458 -34.6907 -34.6907 -34.6821 -14.6719 -14.6520 -14.6520
    12.5936  15.2608  15.2608  16.7270  16.7270  17.2323  19.5935  19.5935
    19.9678  20.7410

          k = 0.1836 0.1836 0.2754 (  3992 PWs)   bands (ev):

   -68.6111 -38.4345 -34.7013 -34.6890 -34.6847 -14.7649 -14.6504 -14.6450
    13.2451  15.4769  15.5555  16.5853  16.5907  16.9042  19.4586  19.6794
    20.1049  20.2887

          k = 0.1836 0.1836 0.3672 (  3994 PWs)   bands (ev):

   -68.6101 -38.4240 -34.7117 -34.6874 -34.6865 -14.8598 -14.6385 -14.6382
    13.9673  15.5482  15.7174  16.4481  16.6255  16.8286  19.3162  19.4132
    19.6101  20.8756

          k = 0.1836 0.1836 0.4591 (  3986 PWs)   bands (ev):

   -68.6095 -38.4178 -34.7178 -34.6875 -34.6864 -14.9157 -14.6347 -14.6308
    14.5771  15.2327  15.9094  16.3275  16.7506  17.0252  18.9908  19.2343
    19.3291  21.2542

          k = 0.1836 0.2754 0.2754 (  3994 PWs)   bands (ev):

   -68.6100 -38.4220 -34.7042 -34.6978 -34.6862 -14.7590 -14.7433 -14.6378
    13.8057  15.5129  15.9636  16.3828  16.4689  16.5523  19.4875  19.6816
    19.9978  20.7905

          k = 0.1836 0.2754 0.3672 (  3988 PWs)   bands (ev):

   -68.6090 -38.4104 -34.7136 -34.7009 -34.6859 -14.8448 -14.7388 -14.6286
    14.3333  15.3944  16.1117  16.2675  16.5366  16.6513  19.2477  19.5054
    19.8850  21.0958

          k = 0.1836 0.2754 0.4591 (  3991 PWs)   bands (ev):

   -68.6084 -38.4036 -34.7203 -34.7019 -34.6855 -14.8994 -14.7321 -14.6230
    14.6600  15.2007  16.0773  16.2154  16.6332  17.1307  18.8824  19.3336
    19.7892  21.3283

          k = 0.1836 0.3672 0.3672 (  3990 PWs)   bands (ev):

   -68.6080 -38.3979 -34.7167 -34.7126 -34.6848 -14.8350 -14.8261 -14.6194
    14.5124  15.1797  16.1060  16.2286  16.8520  16.8902  19.1137  19.3639
    20.1614  21.2653

          k = 0.1836 0.3672 0.4591 (  3993 PWs)   bands (ev):

   -68.6074 -38.3904 -34.7225 -34.7156 -34.6841 -14.8843 -14.8222 -14.6140
    14.5324  15.0565  16.0499  16.1014  17.0892  17.5443  18.8268  19.1979
    20.2417  21.5184

          k = 0.1836 0.4591 0.4591 (  4002 PWs)   bands (ev):

   -68.6068 -38.3826 -34.7241 -34.7235 -34.6833 -14.8760 -14.8747 -14.6087
    14.4150  14.9624  15.9594  15.9825  17.7952  17.9170  18.7145  18.8978
    20.4406  21.8212

          k = 0.2754 0.2754 0.2754 (  3998 PWs)   bands (ev):

   -68.6089 -38.4092 -34.7023 -34.7023 -34.6970 -14.7472 -14.7361 -14.7361
    14.3878  15.9780  15.9780  16.0541  16.2623  16.2623  19.4993  19.4993
    20.4869  20.4869

          k = 0.2754 0.2754 0.3672 (  3992 PWs)   bands (ev):

   -68.6079 -38.3974 -34.7136 -34.7006 -34.6998 -14.8324 -14.7295 -14.7293
    14.8700  15.6662  15.9709  16.1670  16.2716  16.4949  19.2388  19.2799
    20.3268  21.0054

          k = 0.2754 0.2754 0.4591 (  3990 PWs)   bands (ev):

   -68.6073 -38.3903 -34.7209 -34.7009 -34.6996 -14.8866 -14.7255 -14.7210
    15.0465  15.4472  15.9534  16.1199  16.4732  16.9561  18.8233  19.1469
    20.2702  21.3626

          k = 0.2754 0.3672 0.3672 (  3988 PWs)   bands (ev):

   -68.6069 -38.3853 -34.7146 -34.7125 -34.6993 -14.8231 -14.8189 -14.7205
    15.1405  15.5360  16.0229  16.1318  16.3845  16.6316  19.0640  19.0705
    20.6448  21.2133

          k = 0.2754 0.3672 0.4591 (  3992 PWs)   bands (ev):

   -68.6063 -38.3781 -34.7215 -34.7138 -34.6987 -14.8749 -14.8143 -14.7151
    15.0971  15.4513  15.9819  16.0493  16.6892  17.0597  18.7191  18.9776
    20.7102  21.5545

          k = 0.2754 0.4591 0.4591 (  4000 PWs)   bands (ev):

   -68.6057 -38.3709 -34.7219 -34.7217 -34.6977 -14.8682 -14.8676 -14.7103
    15.0150  15.4114  15.9144  15.9457  17.2308  17.2544  18.5390  18.8136
    20.8969  21.8598

          k = 0.3672 0.3672 0.3672 (  3999 PWs)   bands (ev):

   -68.6059 -38.3737 -34.7128 -34.7128 -34.7123 -14.8122 -14.8122 -14.8121
    15.5135  15.9186  15.9807  15.9807  16.3748  16.3748  18.8854  18.8854
    21.2190  21.2190

          k = 0.3672 0.3672 0.4591 (  4008 PWs)   bands (ev):

   -68.6053 -38.3668 -34.7205 -34.7124 -34.7117 -14.8662 -14.8083 -14.8057
    15.5125  15.7020  16.0180  16.1540  16.3792  16.7371  18.6184  18.8043
    21.2323  21.6503

          k = 0.3672 0.4591 0.4591 (  3994 PWs)   bands (ev):

   -68.6047 -38.3600 -34.7200 -34.7200 -34.7110 -14.8611 -14.8610 -14.8026
    15.6245  15.7925  15.9242  16.0437  16.6710  16.7205  18.4954  18.6666
    21.4650  21.8906

          k = 0.4591 0.4591 0.4591 (  3972 PWs)   bands (ev):

   -68.6041 -38.3536 -34.7190 -34.7188 -34.7188 -14.8571 -14.8571 -14.8566
    15.8695  16.0246  16.0246  16.3296  16.3296  16.3650  18.4850  18.4850
    21.9082  21.9082

     the Fermi energy is    18.2332 ev

!    total energy              =    -448.58439168 Ry
     estimated scf accuracy    <          6.3E-09 Ry
     smearing contrib. (-TS)   =       0.00002168 Ry
     internal energy E=F+TS    =    -448.58441336 Ry

     The total energy is F=E-TS. E is the sum of the following terms:
     one-electron contribution =    -147.36878311 Ry
     hartree contribution      =      90.28170931 Ry
     xc contribution           =     -52.94035727 Ry
     ewald contribution        =    -262.40247783 Ry
     one-center paw contrib.   =     -76.15450448 Ry

     convergence has been achieved in   8 iterations

     negative rho (up, down):  9.572E-04 0.000E+00

     Forces acting on atoms (cartesian axes, Ry/au):

     atom    1 type  1   force =     0.00000000    0.00000000    0.00000000
     atom    2 type  2   force =     0.00000000    0.00000000    0.00000000

     Total force =     0.000000     Total SCF correction =     0.000000


     Computing stress (Cartesian axis) and pressure


     negative rho (up, down):  9.572E-04 0.000E+00
          total   stress  (Ry/bohr**3)                   (kbar)     P=       96.92
   0.00065886   0.00000000   0.00000000           96.92        0.00        0.00
   0.00000000   0.00065886   0.00000000            0.00       96.92        0.00
   0.00000000   0.00000000   0.00065886            0.00        0.00       96.92

     Energy error            =      8.8E-04 Ry
     Gradient error          =      0.0E+00 Ry/Bohr
     Cell gradient error     =      7.7E+00 kbar

     number of scf cycles    =   2
     number of bfgs steps    =   1

     enthalpy           old  =    -448.4826798158 Ry
     enthalpy           new  =    -448.4835549493 Ry

     CASE: enthalpy          _new < enthalpy          _old

     new trust radius        =       0.0029553177 bohr
     new conv_thr            =            1.0E-10 Ry

     new unit-cell volume =    166.82580 a.u.^3 (    24.72103 Ang^3 )
     density =      6.96645 g/cm^3

CELL_PARAMETERS (alat=  5.55330037)
   0.991295746   0.000000000   0.000000000
   0.000000000   0.991295746   0.000000000
   0.000000000   0.000000000   0.991295746

ATOMIC_POSITIONS (crystal)
Fe               0.5000000000        0.5000000000        0.5000000000
Ti               0.0000000000        0.0000000000        0.0000000000



     Writing config-only to output data dir ./TiFe.save/ :
     XML data file
     NEW-OLD atomic charge density approx. for the potential
     New effective cutoffs (rho, wfc): 1766.49  126.18

     Check: negative core charge=   -0.000002

     negative rho (up, down):  9.578E-04 0.000E+00

     total cpu time spent up to now is       50.5 secs

     per-process dynamical memory:   152.8 Mb

     Self-consistent Calculation

     iteration #  1     ecut=   124.00 Ry     beta= 0.70
     Davidson diagonalization with overlap
     ethr =  1.00E-06,  avg # of iterations =  2.0

     Threshold (ethr) on eigenvalues was too large:
     Diagonalizing with lowered threshold

     Davidson diagonalization with overlap
     ethr =  3.51E-09,  avg # of iterations =  6.5

     negative rho (up, down):  9.574E-04 0.000E+00

     total cpu time spent up to now is       52.7 secs

     total energy              =    -448.58474667 Ry
     estimated scf accuracy    <       0.00000066 Ry

     iteration #  2     ecut=   124.00 Ry     beta= 0.70
     Davidson diagonalization with overlap
     ethr =  2.36E-09,  avg # of iterations =  3.6

     negative rho (up, down):  9.579E-04 0.000E+00

     total cpu time spent up to now is       53.9 secs

     total energy              =    -448.58475279 Ry
     estimated scf accuracy    <       0.00000061 Ry

     iteration #  3     ecut=   124.00 Ry     beta= 0.70
     Davidson diagonalization with overlap
     ethr =  2.20E-09,  avg # of iterations =  3.9

     negative rho (up, down):  9.581E-04 0.000E+00

     total cpu time spent up to now is       54.9 secs

     total energy              =    -448.58475327 Ry
     estimated scf accuracy    <       0.00000576 Ry

     iteration #  4     ecut=   124.00 Ry     beta= 0.70
     Davidson diagonalization with overlap
     ethr =  2.20E-09,  avg # of iterations =  3.5

     negative rho (up, down):  9.580E-04 0.000E+00

     total cpu time spent up to now is       55.9 secs

     total energy              =    -448.58475357 Ry
     estimated scf accuracy    <       0.00000009 Ry

     iteration #  5     ecut=   124.00 Ry     beta= 0.70
     Davidson diagonalization with overlap
     ethr =  3.18E-10,  avg # of iterations =  1.8

     negative rho (up, down):  9.580E-04 0.000E+00

     total cpu time spent up to now is       56.8 secs

     total energy              =    -448.58475358 Ry
     estimated scf accuracy    <          3.3E-10 Ry

     iteration #  6     ecut=   124.00 Ry     beta= 0.70
     Davidson diagonalization with overlap
     ethr =  1.18E-12,  avg # of iterations =  5.8

     negative rho (up, down):  9.580E-04 0.000E+00

     total cpu time spent up to now is       58.2 secs

     total energy              =    -448.58475358 Ry
     estimated scf accuracy    <          6.2E-10 Ry

     iteration #  7     ecut=   124.00 Ry     beta= 0.70
     Davidson diagonalization with overlap
     ethr =  1.18E-12,  avg # of iterations =  2.6

     negative rho (up, down):  9.580E-04 0.000E+00

     total cpu time spent up to now is       59.2 secs

     End of self-consistent calculation

          k = 0.0000 0.0000 0.0000 (  3911 PWs)   bands (ev):

   -68.6854 -38.5559 -34.7476 -34.7476 -34.7476 -14.6420 -14.6420 -14.6420
    10.6147  14.2643  14.2643  17.1659  17.1659  17.1659  19.5827  19.5827
    21.5922  21.5922

          k = 0.0000 0.0000 0.0917 (  3947 PWs)   bands (ev):

   -68.6851 -38.5536 -34.7503 -34.7472 -34.7472 -14.6742 -14.6402 -14.6402
    10.7918  14.3500  14.3595  17.1528  17.1528  17.2051  19.4721  19.6245
    21.3313  21.3313

          k = 0.0000 0.0000 0.1834 (  3964 PWs)   bands (ev):

   -68.6842 -38.5475 -34.7575 -34.7460 -34.7460 -14.7597 -14.6351 -14.6351
    11.3050  14.6008  14.6076  17.1231  17.1231  17.3150  19.1529  19.7206
    20.7250  20.7250

          k = 0.0000 0.0000 0.2751 (  3988 PWs)   bands (ev):

   -68.6831 -38.5396 -34.7668 -34.7445 -34.7445 -14.8703 -14.6286 -14.6286
    12.0991  14.8960  14.9960  17.0984  17.0984  17.4713  18.6649  19.7629
    20.0546  20.0546

          k = 0.0000 0.0000 0.3668 (  4008 PWs)   bands (ev):

   -68.6821 -38.5322 -34.7753 -34.7431 -34.7431 -14.9705 -14.6225 -14.6225
    13.0737  15.0361  15.4864  17.0949  17.0949  17.6306  18.0862  19.5055
    19.5055  19.5788

          k = 0.0000 0.0000 0.4585 (  3992 PWs)   bands (ev):

   -68.6815 -38.5279 -34.7802 -34.7422 -34.7422 -15.0294 -14.6189 -14.6189
    14.0471  14.8019  15.9278  17.1055  17.1055  17.5908  17.7346  19.1943
    19.1943  19.2637

          k = 0.0000 0.0917 0.0917 (  3966 PWs)   bands (ev):

   -68.6848 -38.5512 -34.7515 -34.7486 -34.7468 -14.6756 -14.6684 -14.6382
    10.9652  14.4332  14.4534  17.0667  17.1317  17.3056  19.4564  19.5939
    21.0445  21.0711

          k = 0.0000 0.0917 0.1834 (  3978 PWs)   bands (ev):

   -68.6839 -38.5447 -34.7582 -34.7485 -34.7456 -14.7571 -14.6657 -14.6329
    11.4666  14.6601  14.7129  16.9833  17.0803  17.4282  19.2108  19.6779
    20.4812  20.5141

          k = 0.0000 0.0917 0.2751 (  3995 PWs)   bands (ev):

   -68.6828 -38.5361 -34.7676 -34.7477 -34.7441 -14.8664 -14.6582 -14.6260
    12.2386  14.9530  15.0760  16.9387  17.0229  17.5168  18.7951  19.6531
    19.9626  19.9952

          k = 0.0000 0.0917 0.3668 (  3991 PWs)   bands (ev):

   -68.6818 -38.5283 -34.7763 -34.7469 -34.7427 -14.9655 -14.6512 -14.6197
    13.1779  15.0866  15.5235  16.9462  16.9708  17.5223  18.3214  19.2261
    19.6495  19.8169

          k = 0.0000 0.0917 0.4585 (  3999 PWs)   bands (ev):

   -68.6812 -38.5237 -34.7814 -34.7465 -34.7419 -15.0238 -14.6471 -14.6159
    14.1037  14.8470  15.9245  16.8988  16.9867  17.4636  17.9832  18.9257
    19.5113  19.6221

          k = 0.0000 0.1834 0.1834 (  3972 PWs)   bands (ev):

   -68.6831 -38.5370 -34.7618 -34.7534 -34.7445 -14.7586 -14.7385 -14.6270
    11.9293  14.8127  15.0044  16.8017  16.9828  17.5097  19.2662  19.6343
    19.9467  20.1766

          k = 0.0000 0.1834 0.2751 (  4003 PWs)   bands (ev):

   -68.6820 -38.5270 -34.7702 -34.7561 -34.7431 -14.8561 -14.7369 -14.6192
    12.6256  14.9916  15.3992  16.6759  16.8913  17.4312  19.0832  19.3845
    19.8001  19.9914

          k = 0.0000 0.1834 0.3668 (  3997 PWs)   bands (ev):

   -68.6809 -38.5177 -34.7791 -34.7573 -34.7417 -14.9521 -14.7278 -14.6121
    13.4369  15.0498  15.7991  16.6394  16.8645  17.2120  18.7680  19.0355
    19.9375  20.0138

          k = 0.0000 0.1834 0.4585 (  3990 PWs)   bands (ev):

   -68.6803 -38.5123 -34.7845 -34.7579 -34.7409 -15.0087 -14.7222 -14.6078
    14.1769  14.8421  16.0855  16.6941  16.9041  16.9830  18.5925  18.7840
    19.9679  20.1160

          k = 0.0000 0.2751 0.2751 (  4000 PWs)   bands (ev):

   -68.6809 -38.5149 -34.7753 -34.7653 -34.7417 -14.8524 -14.8289 -14.6103
    13.1647  14.9734  15.8699  16.4593  16.8498  17.1528  19.1552  19.3207
    19.7001  20.1724

          k = 0.0000 0.2751 0.3668 (  3993 PWs)   bands (ev):

   -68.6799 -38.5038 -34.7831 -34.7706 -34.7404 -14.9347 -14.8266 -14.6021
    13.7089  14.8631  16.3332  16.3457  16.8147  17.0209  18.9684  19.3004
    19.8803  20.4603

          k = 0.0000 0.2751 0.4585 (  3996 PWs)   bands (ev):

   -68.6793 -38.4972 -34.7887 -34.7727 -34.7396 -14.9889 -14.8194 -14.5972
    14.1065  14.6879  16.3601  16.5405  16.5878  17.3929  18.7192  19.2519
    20.1095  20.7187

          k = 0.0000 0.3668 0.3668 (  4002 PWs)   bands (ev):

   -68.6789 -38.4910 -34.7877 -34.7818 -34.7392 -14.9243 -14.9108 -14.5929
    13.8741  14.6526  16.1519  16.4538  16.9619  17.4452  19.1053  19.6721
    19.7141  20.8814

          k = 0.0000 0.3668 0.4585 (  3999 PWs)   bands (ev):

   -68.6783 -38.4834 -34.7926 -34.7864 -34.7385 -14.9707 -14.9077 -14.5874
    13.9371  14.5158  16.0985  16.2042  17.3461  18.1117  18.8617  19.7386
    19.9391  21.1971

          k = 0.0000 0.4585 0.4585 (  3998 PWs)   bands (ev):

   -68.6777 -38.4751 -34.7951 -34.7943 -34.7378 -14.9607 -14.9588 -14.5816
    13.8145  14.4138  15.9730  16.0085  18.0600  18.5630  19.2725  19.4646
    20.0106  21.4797

          k = 0.0917 0.0917 0.0917 (  3959 PWs)   bands (ev):

   -68.6844 -38.5486 -34.7510 -34.7510 -34.7470 -14.6762 -14.6665 -14.6665
    11.1355  14.5304  14.5304  17.0435  17.0435  17.3868  19.5110  19.5110
    20.6110  21.3099

          k = 0.0917 0.0917 0.1834 (  3966 PWs)   bands (ev):

   -68.6836 -38.5417 -34.7584 -34.7498 -34.7469 -14.7543 -14.6654 -14.6614
    11.6269  14.7546  14.7821  16.9287  16.9822  17.4731  19.2721  19.6381
    20.1191  20.7012

          k = 0.0917 0.0917 0.2751 (  3992 PWs)   bands (ev):

   -68.6825 -38.5327 -34.7682 -34.7482 -34.7467 -14.8625 -14.6566 -14.6547
    12.3799  15.0653  15.1026  16.8689  16.8990  17.4681  18.9118  19.5921
    19.9195  20.0416

          k = 0.0917 0.0917 0.3668 (  3994 PWs)   bands (ev):

   -68.6815 -38.5244 -34.7771 -34.7468 -34.7464 -14.9607 -14.6485 -14.6484
    13.2885  15.1743  15.5234  16.7962  16.9026  17.3774  18.5102  19.3043
    19.5168  20.0256

          k = 0.0917 0.0917 0.4585 (  4007 PWs)   bands (ev):

   -68.6809 -38.5195 -34.7824 -34.7463 -34.7459 -15.0185 -14.6448 -14.6435
    14.1735  14.9151  15.8922  16.6674  17.0250  17.2828  18.2232  19.0165
    19.2290  20.1365

          k = 0.0917 0.1834 0.1834 (  3984 PWs)   bands (ev):

   -68.6828 -38.5338 -34.7613 -34.7545 -34.7471 -14.7550 -14.7365 -14.6569
    12.0850  14.9214  15.0560  16.7635  16.8697  17.4358  19.3391  19.6043
    19.8271  20.4063

          k = 0.0917 0.1834 0.2751 (  3994 PWs)   bands (ev):

   -68.6817 -38.5235 -34.7702 -34.7563 -34.7465 -14.8524 -14.7342 -14.6486
    12.7716  15.1153  15.4187  16.6311  16.7698  17.2464  19.1779  19.5113
    19.8356  20.0546

          k = 0.0917 0.1834 0.3668 (  4001 PWs)   bands (ev):

   -68.6806 -38.5140 -34.7795 -34.7570 -34.7457 -14.9479 -14.7250 -14.6409
    13.5654  15.1822  15.7500  16.5566  16.7649  17.0544  18.9276  19.1570
    19.6947  20.3337

          k = 0.0917 0.1834 0.4585 (  3993 PWs)   bands (ev):

   -68.6800 -38.5083 -34.7852 -34.7575 -34.7451 -15.0041 -14.7195 -14.6363
    14.2824  14.9569  15.9832  16.4915  16.8672  17.0023  18.7496  18.8584
    19.4871  20.7408

          k = 0.0917 0.2751 0.2751 (  3989 PWs)   bands (ev):

   -68.6806 -38.5114 -34.7747 -34.7657 -34.7455 -14.8482 -14.8269 -14.6395
    13.3157  15.1020  15.8795  16.4200  16.7125  16.9334  19.2773  19.4817
    19.6820  20.3147

          k = 0.0917 0.2751 0.3668 (  3985 PWs)   bands (ev):

   -68.6796 -38.5002 -34.7829 -34.7705 -34.7444 -14.9311 -14.8240 -14.6310
    13.8568  14.9929  16.2585  16.3119  16.6981  16.8779  19.0540  19.3939
    19.7570  20.7449

          k = 0.0917 0.2751 0.4585 (  4006 PWs)   bands (ev):

   -68.6790 -38.4936 -34.7888 -34.7723 -34.7438 -14.9853 -14.8170 -14.6259
    14.2394  14.8182  16.2736  16.3310  16.6589  17.2940  18.7588  19.3598
    19.6873  21.2458

          k = 0.0917 0.3668 0.3668 (  3992 PWs)   bands (ev):

   -68.6786 -38.4875 -34.7871 -34.7818 -34.7433 -14.9210 -14.9087 -14.6218
    14.0236  14.7819  16.1209  16.3620  16.9186  17.2650  19.0643  19.5866
    19.7758  21.2085

          k = 0.0917 0.3668 0.4585 (  4002 PWs)   bands (ev):

   -68.6780 -38.4800 -34.7923 -34.7859 -34.7425 -14.9680 -14.9054 -14.6164
    14.0768  14.6486  16.0657  16.1519  17.2706  17.9275  18.8151  19.5504
    19.8730  21.4455

          k = 0.0917 0.4585 0.4585 (  3993 PWs)   bands (ev):

   -68.6774 -38.4718 -34.7945 -34.7937 -34.7418 -14.9585 -14.9568 -14.6107
    13.9551  14.5470  15.9506  15.9815  18.0022  18.4223  19.0015  19.1094
    20.0906  21.6760

          k = 0.1834 0.1834 0.1834 (  3989 PWs)   bands (ev):

   -68.6819 -38.5253 -34.7600 -34.7600 -34.7517 -14.7507 -14.7312 -14.7312
    12.5269  15.2023  15.2023  16.6619  16.6619  17.1641  19.5161  19.5161
    19.8887  20.6585

          k = 0.1834 0.1834 0.2751 (  3992 PWs)   bands (ev):

   -68.6808 -38.5141 -34.7705 -34.7583 -34.7542 -14.8427 -14.7296 -14.7242
    13.1774  15.4176  15.4943  16.5207  16.5260  16.8377  19.3820  19.6006
    20.0255  20.2077

          k = 0.1834 0.1834 0.3668 (  3994 PWs)   bands (ev):

   -68.6798 -38.5038 -34.7808 -34.7567 -34.7559 -14.9365 -14.7178 -14.7176
    13.8998  15.4847  15.6572  16.3838  16.5602  16.7625  19.2405  19.3347
    19.5330  20.7917

          k = 0.1834 0.1834 0.4585 (  3986 PWs)   bands (ev):

   -68.6792 -38.4977 -34.7869 -34.7569 -34.7558 -14.9918 -14.7140 -14.7103
    14.5113  15.1681  15.8489  16.2631  16.6842  16.9571  18.9136  19.1595
    19.2531  21.1693

          k = 0.1834 0.2751 0.2751 (  3994 PWs)   bands (ev):

   -68.6797 -38.5018 -34.7733 -34.7671 -34.7556 -14.8368 -14.8215 -14.7171
    13.7377  15.4523  15.9008  16.3192  16.4044  16.4873  19.4099  19.6028
    19.9193  20.7069

          k = 0.1834 0.2751 0.3668 (  3988 PWs)   bands (ev):

   -68.6787 -38.4904 -34.7826 -34.7701 -34.7553 -14.9217 -14.8170 -14.7080
    14.2672  15.3330  16.0489  16.2040  16.4706  16.5851  19.1707  19.4272
    19.8072  21.0119

          k = 0.1834 0.2751 0.4585 (  3991 PWs)   bands (ev):

   -68.6781 -38.4837 -34.7892 -34.7711 -34.7549 -14.9757 -14.8104 -14.7024
    14.5974  15.1380  16.0154  16.1515  16.5659  17.0608  18.8062  19.2565
    19.7119  21.2430

          k = 0.1834 0.3668 0.3668 (  3990 PWs)   bands (ev):

   -68.6777 -38.4781 -34.7856 -34.7817 -34.7542 -14.9120 -14.9033 -14.6990
    14.4503  15.1184  16.0438  16.1655  16.7839  16.8203  19.0373  19.2857
    20.0821  21.1806

          k = 0.1834 0.3668 0.4585 (  3993 PWs)   bands (ev):

   -68.6771 -38.4707 -34.7914 -34.7845 -34.7535 -14.9609 -14.8995 -14.6936
    14.4732  14.9951  15.9879  16.0389  17.0190  17.4716  18.7508  19.1208
    20.1620  21.4325

          k = 0.1834 0.4585 0.4585 (  4002 PWs)   bands (ev):

   -68.6766 -38.4630 -34.7929 -34.7924 -34.7527 -14.9526 -14.9514 -14.6883
    14.3574  14.9015  15.8978  15.9206  17.7224  17.8423  18.6388  18.8219
    20.3597  21.7338

          k = 0.2751 0.2751 0.2751 (  3998 PWs)   bands (ev):

   -68.6787 -38.4892 -34.7715 -34.7715 -34.7663 -14.8252 -14.8143 -14.8143
    14.3186  15.9155  15.9155  15.9913  16.1986  16.1986  19.4212  19.4212
    20.4062  20.4062

          k = 0.2751 0.2751 0.3668 (  3992 PWs)   bands (ev):

   -68.6777 -38.4776 -34.7826 -34.7698 -34.7690 -14.9094 -14.8077 -14.8075
    14.8027  15.6040  15.9091  16.1029  16.2070  16.4293  19.1613  19.2030
    20.2469  20.9221

          k = 0.2751 0.2751 0.4585 (  3990 PWs)   bands (ev):

   -68.6771 -38.4706 -34.7898 -34.7700 -34.7688 -14.9631 -14.8038 -14.7994
    14.9836  15.3844  15.8921  16.0554  16.4059  16.8874  18.7472  19.0707
    20.1907  21.2773

          k = 0.2751 0.3668 0.3668 (  3988 PWs)   bands (ev):

   -68.6767 -38.4657 -34.7836 -34.7816 -34.7685 -14.9003 -14.8961 -14.7989
    15.0767  15.4734  15.9607  16.0680  16.3177  16.5644  18.9878  18.9939
    20.5633  21.1290

          k = 0.2751 0.3668 0.4585 (  3992 PWs)   bands (ev):

   -68.6761 -38.4586 -34.7904 -34.7828 -34.7679 -14.9515 -14.8916 -14.7936
    15.0365  15.3887  15.9198  15.9858  16.6204  16.9900  18.6438  18.9018
    20.6283  21.4684

          k = 0.2751 0.4585 0.4585 (  4000 PWs)   bands (ev):

   -68.6755 -38.4515 -34.7908 -34.7905 -34.7670 -14.9449 -14.9443 -14.7888
    14.9554  15.3487  15.8524  15.8834  17.1597  17.1837  18.4648  18.7382
    20.8140  21.7723

          k = 0.3668 0.3668 0.3668 (  3999 PWs)   bands (ev):

   -68.6757 -38.4543 -34.7818 -34.7818 -34.7813 -14.8895 -14.8895 -14.8895
    15.4527  15.8494  15.9182  15.9182  16.3091  16.3091  18.8099  18.8099
    21.1347  21.1347

          k = 0.3668 0.3668 0.4585 (  4008 PWs)   bands (ev):

   -68.6751 -38.4475 -34.7894 -34.7815 -34.7807 -14.9429 -14.8856 -14.8831
    15.4517  15.6391  15.9546  16.0898  16.3110  16.6693  18.5439  18.7292
    21.1479  21.5638

          k = 0.3668 0.4585 0.4585 (  3994 PWs)   bands (ev):

   -68.6745 -38.4408 -34.7889 -34.7889 -34.7801 -14.9378 -14.9378 -14.8800
    15.5631  15.7289  15.8614  15.9795  16.6030  16.6527  18.4215  18.5920
    21.3794  21.8029

          k = 0.4585 0.4585 0.4585 (  3972 PWs)   bands (ev):

   -68.6740 -38.4345 -34.7879 -34.7878 -34.7878 -14.9339 -14.9339 -14.9334
    15.8065  15.9602  15.9602  16.2648  16.2648  16.2987  18.4112  18.4112
    21.8204  21.8204

     the Fermi energy is    18.1581 ev

!    total energy              =    -448.58475358 Ry
     estimated scf accuracy    <          2.7E-11 Ry
     smearing contrib. (-TS)   =       0.00002538 Ry
     internal energy E=F+TS    =    -448.58477897 Ry

     The total energy is F=E-TS. E is the sum of the following terms:
     one-electron contribution =    -147.82969806 Ry
     hartree contribution      =      90.43543422 Ry
     xc contribution           =     -52.93398028 Ry
     ewald contribution        =    -262.10210600 Ry
     one-center paw contrib.   =     -76.15442886 Ry

     convergence has been achieved in   7 iterations

     negative rho (up, down):  9.580E-04 0.000E+00

     Forces acting on atoms (cartesian axes, Ry/au):

     atom    1 type  1   force =     0.00000000    0.00000000    0.00000000
     atom    2 type  2   force =     0.00000000    0.00000000    0.00000000

     Total force =     0.000000     Total SCF correction =     0.000000


     Computing stress (Cartesian axis) and pressure


     negative rho (up, down):  9.580E-04 0.000E+00
          total   stress  (Ry/bohr**3)                   (kbar)     P=       89.06
   0.00060541   0.00000000   0.00000000           89.06        0.00        0.00
   0.00000000   0.00060541   0.00000000            0.00       89.06        0.00
   0.00000000   0.00000000   0.00060541            0.00        0.00       89.06

     Energy error            =      1.5E-05 Ry
     Gradient error          =      0.0E+00 Ry/Bohr
     Cell gradient error     =      1.6E-01 kbar

     bfgs converged in   3 scf cycles and   2 bfgs steps
     (criteria: energy <  1.0E-04 Ry, force <  1.0E-03 Ry/Bohr, cell <  5.0E-01 kbar)

     End of BFGS Geometry Optimization

     Final enthalpy           =    -448.4835697719 Ry

     File ./TiFe.bfgs deleted, as requested
Begin final coordinates
     new unit-cell volume =    166.82580 a.u.^3 (    24.72103 Ang^3 )
     density =      6.96645 g/cm^3

CELL_PARAMETERS (alat=  5.55330037)
   0.991295746   0.000000000   0.000000000
   0.000000000   0.991295746   0.000000000
   0.000000000   0.000000000   0.991295746

ATOMIC_POSITIONS (crystal)
Fe               0.5000000000        0.5000000000        0.5000000000
Ti               0.0000000000        0.0000000000        0.0000000000
End final coordinates



     Writing config-only to output data dir ./TiFe.save/ :
     XML data file

     Final scf calculation at the relaxed structure.
     The G-vectors are recalculated for the final unit cell
     Results may differ from those at the preceding step.

     Parallelization info
     --------------------
     sticks:   dense  smooth     PW     G-vecs:    dense   smooth      PW
     Min         524     150     43                25495     3886     617
     Max         527     151     44                25496     3889     620
     Sum        4197    1201    349               203965    31103    4945

     Using Slab Decomposition



     bravais-lattice index     =            0
     lattice parameter (alat)  =       5.5533  a.u.
     unit-cell volume          =     166.8258 (a.u.)^3
     number of atoms/cell      =            2
     number of atomic types    =            2
     number of electrons       =        28.00
     number of Kohn-Sham states=           18
     kinetic-energy cutoff     =     124.0000  Ry
     charge density cutoff     =    1736.0000  Ry
     scf convergence threshold =      1.0E-10
     mixing beta               =       0.7000
     number of iterations used =            8  plain     mixing
     press convergence thresh. =      5.0E-01
     Exchange-correlation= PBE
                           (   1   4   3   4   0   0   0)

     celldm(1)=   5.553300  celldm(2)=   0.000000  celldm(3)=   0.000000
     celldm(4)=   0.000000  celldm(5)=   0.000000  celldm(6)=   0.000000

     crystal axes: (cart. coord. in units of alat)
               a(1) = (   0.991296   0.000000   0.000000 )  
               a(2) = (   0.000000   0.991296   0.000000 )  
               a(3) = (   0.000000   0.000000   0.991296 )  

     reciprocal axes: (cart. coord. in units 2 pi/alat)
               b(1) = (  1.008781  0.000000  0.000000 )  
               b(2) = (  0.000000  1.008781  0.000000 )  
               b(3) = (  0.000000  0.000000  1.008781 )  


     PseudoPot. # 1 for Fe read from file:
     ../../pseudos/Fe.pbe-spn-kjpaw_psl.0.2.1.UPF
     MD5 check sum: e86618425769142926afa95317d90200
     Pseudo is Projector augmented-wave + core cor, Zval = 16.0
     Generated using "atomic" code by A. Dal Corso  v.5.0.99 svn rev. 10869
     Shape of augmentation charge: PSQ
     Using radial grid of 1191 points,  6 beta functions with: 
                l(1) =   0
                l(2) =   0
                l(3) =   1
                l(4) =   1
                l(5) =   2
                l(6) =   2
     Q(r) pseudized with 0 coefficients 


     PseudoPot. # 2 for Ti read from file:
     ../../pseudos/ti_pbe_v1.4.uspp.F.UPF
     MD5 check sum: 88a00a6731bd790ddea75d31a80cb452
     Pseudo is Ultrasoft + core correction, Zval = 12.0
     Generated by new atomic code, or converted to UPF format
     Using radial grid of  851 points,  6 beta functions with: 
                l(1) =   0
                l(2) =   0
                l(3) =   1
                l(4) =   1
                l(5) =   2
                l(6) =   2
     Q(r) pseudized with  6 coefficients,  rinner =    1.000   1.000   1.000
                                                       1.000   1.000

     atomic species   valence    mass     pseudopotential
     Fe               16.00    55.84500     Fe( 1.00)
     Ti               12.00    47.86700     Ti( 1.00)

     48 Sym. Ops., with inversion, found



   Cartesian axes

[...]
     estimated scf accuracy    <       0.00000003 Ry

     iteration # 25     ecut=   124.00 Ry     beta= 0.70
     Davidson diagonalization with overlap
     ethr =  8.32E-11,  avg # of iterations =  1.0

     negative rho (up, down):  9.577E-04 0.000E+00

     total cpu time spent up to now is       89.7 secs

     total energy              =    -448.58470812 Ry
     estimated scf accuracy    <       0.00000003 Ry

     iteration # 26     ecut=   124.00 Ry     beta= 0.70
     Davidson diagonalization with overlap
     ethr =  8.32E-11,  avg # of iterations =  1.0

     negative rho (up, down):  9.577E-04 0.000E+00

     total cpu time spent up to now is       90.5 secs

     total energy              =    -448.58470812 Ry
     estimated scf accuracy    <       0.00000002 Ry

     iteration # 27     ecut=   124.00 Ry     beta= 0.70
     Davidson diagonalization with overlap
     ethr =  8.05E-11,  avg # of iterations =  1.0

     negative rho (up, down):  9.577E-04 0.000E+00

     total cpu time spent up to now is       91.4 secs

     total energy              =    -448.58470812 Ry
     estimated scf accuracy    <       0.00000002 Ry

     iteration # 28     ecut=   124.00 Ry     beta= 0.70
     Davidson diagonalization with overlap
     ethr =  8.05E-11,  avg # of iterations =  1.0

     negative rho (up, down):  9.577E-04 0.000E+00

     total cpu time spent up to now is       92.3 secs

     total energy              =    -448.58470812 Ry
     estimated scf accuracy    <       0.00000004 Ry

     iteration # 29     ecut=   124.00 Ry     beta= 0.70
     Davidson diagonalization with overlap
     ethr =  8.05E-11,  avg # of iterations =  1.0

     negative rho (up, down):  9.577E-04 0.000E+00

     total cpu time spent up to now is       93.2 secs

     total energy              =    -448.58470812 Ry
     estimated scf accuracy    <       0.00000001 Ry

     iteration # 30     ecut=   124.00 Ry     beta= 0.70
     Davidson diagonalization with overlap
     ethr =  3.96E-11,  avg # of iterations =  1.0

     negative rho (up, down):  9.577E-04 0.000E+00

     total cpu time spent up to now is       94.1 secs

     total energy              =    -448.58470812 Ry
     estimated scf accuracy    <          4.6E-09 Ry

     iteration # 31     ecut=   124.00 Ry     beta= 0.70
     Davidson diagonalization with overlap
     ethr =  1.64E-11,  avg # of iterations =  1.0

     negative rho (up, down):  9.577E-04 0.000E+00

     total cpu time spent up to now is       94.9 secs

     total energy              =    -448.58470812 Ry
     estimated scf accuracy    <          2.7E-09 Ry

     iteration # 32     ecut=   124.00 Ry     beta= 0.70
     Davidson diagonalization with overlap
     ethr =  9.73E-12,  avg # of iterations =  2.0

     negative rho (up, down):  9.577E-04 0.000E+00

     total cpu time spent up to now is       95.9 secs

     End of self-consistent calculation

          k = 0.0000 0.0000 0.0000 (  3887 PWs)   bands (ev):

   -68.6854 -38.5559 -34.7476 -34.7476 -34.7476 -14.6421 -14.6421 -14.6421
    10.6147  14.2643  14.2643  17.1659  17.1659  17.1659  19.5827  19.5827
    21.5921  21.5921

          k = 0.0000 0.0000 0.0917 (  3875 PWs)   bands (ev):

   -68.6850 -38.5537 -34.7502 -34.7471 -34.7471 -14.6742 -14.6402 -14.6402
    10.7918  14.3500  14.3595  17.1528  17.1528  17.2051  19.4721  19.6246
    21.3313  21.3313

          k = 0.0000 0.0000 0.1834 (  3895 PWs)   bands (ev):

   -68.6842 -38.5476 -34.7574 -34.7459 -34.7459 -14.7597 -14.6352 -14.6352
    11.3050  14.6008  14.6076  17.1231  17.1231  17.3150  19.1530  19.7206
    20.7250  20.7250

          k = 0.0000 0.0000 0.2751 (  3880 PWs)   bands (ev):

   -68.6831 -38.5396 -34.7667 -34.7444 -34.7444 -14.8703 -14.6286 -14.6286
    12.0991  14.8961  14.9960  17.0984  17.0984  17.4713  18.6650  19.7629
    20.0546  20.0546

          k = 0.0000 0.0000 0.3668 (  3888 PWs)   bands (ev):

   -68.6820 -38.5323 -34.7751 -34.7430 -34.7430 -14.9705 -14.6225 -14.6225
    13.0737  15.0361  15.4864  17.0950  17.0950  17.6306  18.0862  19.5055
    19.5055  19.5789

          k = 0.0000 0.0000 0.4585 (  3908 PWs)   bands (ev):

   -68.6814 -38.5279 -34.7801 -34.7422 -34.7422 -15.0294 -14.6189 -14.6189
    14.0472  14.8020  15.9278  17.1055  17.1055  17.5908  17.7346  19.1944
    19.1944  19.2637

          k = 0.0000 0.0917 0.0917 (  3873 PWs)   bands (ev):

   -68.6847 -38.5512 -34.7514 -34.7484 -34.7467 -14.6756 -14.6684 -14.6382
    10.9652  14.4332  14.4534  17.0667  17.1317  17.3056  19.4564  19.5939
    21.0445  21.0711

          k = 0.0000 0.0917 0.1834 (  3875 PWs)   bands (ev):

   -68.6839 -38.5447 -34.7581 -34.7484 -34.7455 -14.7571 -14.6657 -14.6329
    11.4666  14.6601  14.7129  16.9833  17.0803  17.4282  19.2108  19.6779
    20.4812  20.5142

          k = 0.0000 0.0917 0.2751 (  3890 PWs)   bands (ev):

   -68.6828 -38.5362 -34.7675 -34.7476 -34.7440 -14.8664 -14.6582 -14.6260
    12.2387  14.9530  15.0761  16.9387  17.0229  17.5168  18.7951  19.6531
    19.9626  19.9953

          k = 0.0000 0.0917 0.3668 (  3900 PWs)   bands (ev):

   -68.6817 -38.5283 -34.7762 -34.7469 -34.7426 -14.9655 -14.6512 -14.6197
    13.1780  15.0867  15.5235  16.9462  16.9708  17.5224  18.3214  19.2261
    19.6495  19.8170

          k = 0.0000 0.0917 0.4585 (  3898 PWs)   bands (ev):

   -68.6811 -38.5237 -34.7813 -34.7464 -34.7418 -15.0238 -14.6471 -14.6159
    14.1038  14.8471  15.9245  16.8988  16.9867  17.4636  17.9832  18.9257
    19.5114  19.6222

          k = 0.0000 0.1834 0.1834 (  3890 PWs)   bands (ev):

   -68.6830 -38.5370 -34.7617 -34.7533 -34.7444 -14.7586 -14.7385 -14.6270
    11.9293  14.8127  15.0045  16.8017  16.9828  17.5097  19.2662  19.6343
    19.9467  20.1766

          k = 0.0000 0.1834 0.2751 (  3890 PWs)   bands (ev):

   -68.6819 -38.5270 -34.7701 -34.7559 -34.7429 -14.8561 -14.7369 -14.6192
    12.6257  14.9916  15.3992  16.6759  16.8913  17.4313  19.0832  19.3845
    19.8001  19.9915

          k = 0.0000 0.1834 0.3668 (  3893 PWs)   bands (ev):

   -68.6809 -38.5178 -34.7790 -34.7572 -34.7416 -14.9521 -14.7278 -14.6121
    13.4369  15.0498  15.7991  16.6394  16.8645  17.2120  18.7680  19.0356
    19.9375  20.0138

          k = 0.0000 0.1834 0.4585 (  3906 PWs)   bands (ev):

   -68.6803 -38.5123 -34.7844 -34.7578 -34.7408 -15.0087 -14.7222 -14.6078
    14.1770  14.8421  16.0855  16.6942  16.9041  16.9830  18.5925  18.7840
    19.9680  20.1160

          k = 0.0000 0.2751 0.2751 (  3896 PWs)   bands (ev):

   -68.6808 -38.5149 -34.7752 -34.7652 -34.7416 -14.8524 -14.8290 -14.6103
    13.1648  14.9734  15.8700  16.4593  16.8498  17.1528  19.1553  19.3207
    19.7001  20.1724

          k = 0.0000 0.2751 0.3668 (  3888 PWs)   bands (ev):

   -68.6798 -38.5039 -34.7830 -34.7705 -34.7403 -14.9347 -14.8267 -14.6021
    13.7090  14.8631  16.3333  16.3458  16.8148  17.0210  18.9684  19.3004
    19.8803  20.4604

          k = 0.0000 0.2751 0.4585 (  3888 PWs)   bands (ev):

   -68.6792 -38.4973 -34.7886 -34.7726 -34.7395 -14.9889 -14.8194 -14.5972
    14.1065  14.6879  16.3602  16.5405  16.5879  17.3930  18.7192  19.2519
    20.1095  20.7187

          k = 0.0000 0.3668 0.3668 (  3894 PWs)   bands (ev):

   -68.6788 -38.4910 -34.7876 -34.7817 -34.7391 -14.9243 -14.9108 -14.5929
    13.8742  14.6527  16.1519  16.4538  16.9619  17.4452  19.1054  19.6721
    19.7141  20.8814

          k = 0.0000 0.3668 0.4585 (  3893 PWs)   bands (ev):

   -68.6782 -38.4834 -34.7925 -34.7862 -34.7384 -14.9707 -14.9077 -14.5874
    13.9371  14.5159  16.0986  16.2042  17.3462  18.1117  18.8617  19.7386
    19.9391  21.1971

          k = 0.0000 0.4585 0.4585 (  3892 PWs)   bands (ev):

   -68.6776 -38.4751 -34.7950 -34.7942 -34.7376 -14.9607 -14.9588 -14.5816
    13.8145  14.4138  15.9730  16.0085  18.0600  18.5630  19.2725  19.4646
    20.0107  21.4797

          k = 0.0917 0.0917 0.0917 (  3875 PWs)   bands (ev):

   -68.6844 -38.5486 -34.7509 -34.7509 -34.7469 -14.6762 -14.6665 -14.6665
    11.1355  14.5304  14.5304  17.0435  17.0435  17.3868  19.5110  19.5110
    20.6110  21.3100

          k = 0.0917 0.0917 0.1834 (  3886 PWs)   bands (ev):

   -68.6836 -38.5417 -34.7584 -34.7497 -34.7468 -14.7544 -14.6654 -14.6614
    11.6269  14.7546  14.7822  16.9288  16.9822  17.4732  19.2721  19.6381
    20.1191  20.7013

          k = 0.0917 0.0917 0.2751 (  3893 PWs)   bands (ev):

   -68.6824 -38.5327 -34.7681 -34.7482 -34.7466 -14.8625 -14.6566 -14.6547
    12.3799  15.0653  15.1026  16.8689  16.8991  17.4681  18.9118  19.5921
    19.9195  20.0416

          k = 0.0917 0.0917 0.3668 (  3904 PWs)   bands (ev):

   -68.6814 -38.5244 -34.7770 -34.7467 -34.7463 -14.9607 -14.6485 -14.6484
    13.2885  15.1743  15.5234  16.7962  16.9026  17.3774  18.5102  19.3043
    19.5168  20.0256

          k = 0.0917 0.0917 0.4585 (  3896 PWs)   bands (ev):

   -68.6808 -38.5195 -34.7823 -34.7462 -34.7458 -15.0185 -14.6448 -14.6435
    14.1736  14.9151  15.8922  16.6674  17.0250  17.2828  18.2233  19.0165
    19.2291  20.1366

          k = 0.0917 0.1834 0.1834 (  3889 PWs)   bands (ev):

   -68.6827 -38.5338 -34.7612 -34.7544 -34.7470 -14.7550 -14.7365 -14.6569
    12.0850  14.9214  15.0560  16.7635  16.8697  17.4358  19.3391  19.6044
    19.8272  20.4063

          k = 0.0917 0.1834 0.2751 (  3893 PWs)   bands (ev):

   -68.6816 -38.5235 -34.7701 -34.7562 -34.7464 -14.8524 -14.7342 -14.6486
    12.7717  15.1153  15.4187  16.6311  16.7698  17.2465  19.1779  19.5114
    19.8356  20.0546

          k = 0.0917 0.1834 0.3668 (  3893 PWs)   bands (ev):

   -68.6806 -38.5140 -34.7794 -34.7569 -34.7456 -14.9479 -14.7250 -14.6409
    13.5654  15.1823  15.7500  16.5566  16.7649  17.0545  18.9276  19.1570
    19.6948  20.3337

          k = 0.0917 0.1834 0.4585 (  3893 PWs)   bands (ev):

   -68.6800 -38.5083 -34.7850 -34.7574 -34.7450 -15.0041 -14.7195 -14.6363
    14.2824  14.9570  15.9832  16.4915  16.8672  17.0024  18.7496  18.8584
    19.4871  20.7408

          k = 0.0917 0.2751 0.2751 (  3888 PWs)   bands (ev):

   -68.6805 -38.5114 -34.7746 -34.7656 -34.7454 -14.8482 -14.8269 -14.6395
    13.3158  15.1021  15.8795  16.4200  16.7125  16.9334  19.2773  19.4817
    19.6820  20.3147

          k = 0.0917 0.2751 0.3668 (  3887 PWs)   bands (ev):

   -68.6795 -38.5002 -34.7828 -34.7704 -34.7443 -14.9312 -14.8241 -14.6310
    13.8568  14.9930  16.2585  16.3119  16.6981  16.8779  19.0540  19.3940
    19.7570  20.7450

          k = 0.0917 0.2751 0.4585 (  3882 PWs)   bands (ev):

   -68.6789 -38.4936 -34.7887 -34.7722 -34.7437 -14.9853 -14.8170 -14.6259
    14.2394  14.8182  16.2736  16.3311  16.6590  17.2940  18.7588  19.3599
    19.6873  21.2460

          k = 0.0917 0.3668 0.3668 (  3889 PWs)   bands (ev):

   -68.6785 -38.4875 -34.7870 -34.7817 -34.7431 -14.9210 -14.9087 -14.6218
    14.0236  14.7819  16.1209  16.3621  16.9186  17.2651  19.0644  19.5867
    19.7758  21.2085

          k = 0.0917 0.3668 0.4585 (  3891 PWs)   bands (ev):

   -68.6779 -38.4800 -34.7921 -34.7858 -34.7424 -14.9680 -14.9054 -14.6164
    14.0769  14.6486  16.0658  16.1519  17.2706  17.9276  18.8151  19.5505
    19.8730  21.4455

          k = 0.0917 0.4585 0.4585 (  3899 PWs)   bands (ev):

   -68.6773 -38.4719 -34.7944 -34.7936 -34.7417 -14.9585 -14.9568 -14.6107
    13.9551  14.5470  15.9506  15.9815  18.0022  18.4223  19.0016  19.1095
    20.0906  21.6760

          k = 0.1834 0.1834 0.1834 (  3887 PWs)   bands (ev):

   -68.6819 -38.5253 -34.7599 -34.7599 -34.7516 -14.7507 -14.7312 -14.7312
    12.5269  15.2023  15.2023  16.6619  16.6619  17.1641  19.5161  19.5161
    19.8887  20.6585

          k = 0.1834 0.1834 0.2751 (  3887 PWs)   bands (ev):

   -68.6808 -38.5141 -34.7704 -34.7582 -34.7541 -14.8427 -14.7296 -14.7242
    13.1774  15.4176  15.4943  16.5207  16.5261  16.8378  19.3820  19.6006
    20.0255  20.2078

          k = 0.1834 0.1834 0.3668 (  3882 PWs)   bands (ev):

   -68.6798 -38.5038 -34.7806 -34.7566 -34.7558 -14.9365 -14.7178 -14.7176
    13.8998  15.4848  15.6572  16.3838  16.5602  16.7626  19.2405  19.3347
    19.5330  20.7917

          k = 0.1834 0.1834 0.4585 (  3891 PWs)   bands (ev):

   -68.6792 -38.4977 -34.7868 -34.7568 -34.7557 -14.9918 -14.7140 -14.7103
    14.5114  15.1681  15.8489  16.2631  16.6843  16.9572  18.9136  19.1595
    19.2531  21.1693

          k = 0.1834 0.2751 0.2751 (  3886 PWs)   bands (ev):

   -68.6797 -38.5018 -34.7732 -34.7670 -34.7555 -14.8368 -14.8215 -14.7171
    13.7377  15.4524  15.9008  16.3192  16.4044  16.4873  19.4099  19.6028
    19.9193  20.7069

          k = 0.1834 0.2751 0.3668 (  3888 PWs)   bands (ev):

   -68.6787 -38.4904 -34.7825 -34.7700 -34.7552 -14.9217 -14.8170 -14.7080
    14.2672  15.3330  16.0489  16.2040  16.4706  16.5851  19.1707  19.4272
    19.8072  21.0119

          k = 0.1834 0.2751 0.4585 (  3880 PWs)   bands (ev):

   -68.6781 -38.4837 -34.7891 -34.7710 -34.7548 -14.9757 -14.8104 -14.7025
    14.5974  15.1381  16.0154  16.1516  16.5659  17.0608  18.8062  19.2565
    19.7120  21.2430

          k = 0.1834 0.3668 0.3668 (  3891 PWs)   bands (ev):

   -68.6777 -38.4781 -34.7855 -34.7816 -34.7541 -14.9120 -14.9033 -14.6990
    14.4503  15.1185  16.0438  16.1655  16.7839  16.8203  19.0373  19.2857
    20.0821  21.1807

          k = 0.1834 0.3668 0.4585 (  3890 PWs)   bands (ev):

   -68.6771 -38.4707 -34.7913 -34.7844 -34.7534 -14.9609 -14.8995 -14.6936
    14.4733  14.9951  15.9879  16.0389  17.0190  17.4716  18.7509  19.1208
    20.1620  21.4325

          k = 0.1834 0.4585 0.4585 (  3892 PWs)   bands (ev):

   -68.6765 -38.4630 -34.7928 -34.7923 -34.7526 -14.9526 -14.9514 -14.6883
    14.3574  14.9015  15.8978  15.9207  17.7224  17.8423  18.6388  18.8219
    20.3598  21.7338

          k = 0.2751 0.2751 0.2751 (  3881 PWs)   bands (ev):

   -68.6786 -38.4892 -34.7714 -34.7714 -34.7662 -14.8252 -14.8143 -14.8143
    14.3186  15.9155  15.9155  15.9914  16.1986  16.1986  19.4213  19.4213
    20.4062  20.4062

          k = 0.2751 0.2751 0.3668 (  3888 PWs)   bands (ev):

   -68.6776 -38.4776 -34.7825 -34.7697 -34.7689 -14.9095 -14.8077 -14.8076
    14.8027  15.6040  15.9091  16.1029  16.2070  16.4293  19.1614  19.2030
    20.2469  20.9221

          k = 0.2751 0.2751 0.4585 (  3890 PWs)   bands (ev):

   -68.6770 -38.4706 -34.7897 -34.7699 -34.7687 -14.9631 -14.8038 -14.7994
    14.9837  15.3844  15.8922  16.0554  16.4060  16.8874  18.7473  19.0707
    20.1907  21.2773

          k = 0.2751 0.3668 0.3668 (  3890 PWs)   bands (ev):

   -68.6766 -38.4657 -34.7835 -34.7815 -34.7684 -14.9003 -14.8961 -14.7989
    15.0767  15.4734  15.9607  16.0680  16.3178  16.5645  18.9878  18.9939
    20.5633  21.1291

          k = 0.2751 0.3668 0.4585 (  3890 PWs)   bands (ev):

   -68.6760 -38.4586 -34.7902 -34.7827 -34.7678 -14.9515 -14.8916 -14.7936
    15.0365  15.3887  15.9198  15.9858  16.6204  16.9900  18.6439  18.9018
    20.6284  21.4684

          k = 0.2751 0.4585 0.4585 (  3896 PWs)   bands (ev):

   -68.6755 -38.4515 -34.7907 -34.7904 -34.7669 -14.9449 -14.9443 -14.7888
    14.9555  15.3487  15.8524  15.8834  17.1597  17.1837  18.4648  18.7382
    20.8140  21.7723

          k = 0.3668 0.3668 0.3668 (  3911 PWs)   bands (ev):

   -68.6757 -38.4543 -34.7817 -34.7817 -34.7812 -14.8895 -14.8895 -14.8895
    15.4528  15.8494  15.9182  15.9182  16.3091  16.3091  18.8099  18.8099
    21.1347  21.1347

          k = 0.3668 0.3668 0.4585 (  3888 PWs)   bands (ev):

   -68.6751 -38.4475 -34.7893 -34.7813 -34.7806 -14.9429 -14.8856 -14.8831
    15.4517  15.6391  15.9546  16.0898  16.3111  16.6694  18.5439  18.7293
    21.1480  21.5638

          k = 0.3668 0.4585 0.4585 (  3892 PWs)   bands (ev):

   -68.6745 -38.4408 -34.7888 -34.7888 -34.7799 -14.9378 -14.9378 -14.8800
    15.5632  15.7289  15.8614  15.9796  16.6031  16.6528  18.4215  18.5920
    21.3795  21.8029

          k = 0.4585 0.4585 0.4585 (  3882 PWs)   bands (ev):

   -68.6739 -38.4345 -34.7878 -34.7877 -34.7877 -14.9339 -14.9339 -14.9334
    15.8065  15.9602  15.9602  16.2648  16.2648  16.2987  18.4112  18.4112
    21.8204  21.8204

     the Fermi energy is    18.1582 ev

!    total energy              =    -448.58470812 Ry
     estimated scf accuracy    <          6.5E-11 Ry
     smearing contrib. (-TS)   =       0.00002536 Ry
     internal energy E=F+TS    =    -448.58473349 Ry

     The total energy is F=E-TS. E is the sum of the following terms:
     one-electron contribution =    -147.82980080 Ry
     hartree contribution      =      90.43554576 Ry
     xc contribution           =     -52.93394890 Ry
     ewald contribution        =    -262.10210600 Ry
     one-center paw contrib.   =     -76.15442354 Ry

     convergence has been achieved in  32 iterations

     negative rho (up, down):  9.577E-04 0.000E+00

     Forces acting on atoms (cartesian axes, Ry/au):

     atom    1 type  1   force =     0.00000000    0.00000000    0.00000000
     atom    2 type  2   force =     0.00000000    0.00000000    0.00000000

     Total force =     0.000000     Total SCF correction =     0.000000


     Computing stress (Cartesian axis) and pressure


     negative rho (up, down):  9.577E-04 0.000E+00
          total   stress  (Ry/bohr**3)                   (kbar)     P=       88.90
   0.00060432   0.00000000   0.00000000           88.90        0.00        0.00
   0.00000000   0.00060432   0.00000000            0.00       88.90        0.00
   0.00000000   0.00000000   0.00060432            0.00        0.00       88.90


     Writing all to output data dir ./TiFe.save/ :
     XML data file, charge density, pseudopotentials, collected wavefunctions

     init_run     :      1.75s CPU      1.81s WALL (       2 calls)
     electrons    :     84.20s CPU     88.31s WALL (       4 calls)
     update_pot   :      0.16s CPU      0.17s WALL (       2 calls)
     forces       :      0.92s CPU      0.98s WALL (       4 calls)
     stress       :      5.41s CPU      5.61s WALL (       4 calls)

     Called by init_run:
     wfcinit      :      0.59s CPU      0.60s WALL (       2 calls)
     potinit      :      0.44s CPU      0.46s WALL (       2 calls)
     hinit0       :      0.38s CPU      0.39s WALL (       2 calls)

     Called by electrons:
     c_bands      :     50.22s CPU     51.42s WALL (      85 calls)
     sum_band     :     18.43s CPU     20.01s WALL (      85 calls)
     v_of_rho     :      1.81s CPU      1.95s WALL (      87 calls)
     newd         :      9.70s CPU     10.83s WALL (      87 calls)
     PAW_pot      :      4.44s CPU      4.51s WALL (      89 calls)
     mix_rho      :      0.21s CPU      0.23s WALL (      85 calls)

     Called by c_bands:
     init_us_2    :      1.45s CPU      1.49s WALL (   10192 calls)
     cegterg      :     47.75s CPU     48.87s WALL (    4760 calls)

     Called by *egterg:
     cdiaghg      :      5.46s CPU      5.58s WALL (   17633 calls)
     h_psi        :     36.86s CPU     37.76s WALL (   17969 calls)
     s_psi        :      0.95s CPU      0.97s WALL (   17969 calls)
     g_psi        :      0.23s CPU      0.23s WALL (   13097 calls)

     Called by h_psi:
     h_psi:calbec :      1.34s CPU      1.37s WALL (   17969 calls)
     vloc_psi     :     34.38s CPU     35.22s WALL (   17969 calls)
     add_vuspsi   :      0.97s CPU      0.99s WALL (   17969 calls)

     General routines
     calbec       :      2.12s CPU      2.18s WALL (   26649 calls)
     fft          :      1.16s CPU      1.34s WALL (    1227 calls)
     ffts         :      0.29s CPU      0.30s WALL (     172 calls)
     fftw         :     30.84s CPU     31.55s WALL (  530266 calls)
     interpolate  :      0.37s CPU      0.39s WALL (      87 calls)

     Parallel routines

     PWSCF        :     93.08s CPU     97.72s WALL


   This run was terminated on:  15:37: 4  25Oct2025            

=------------------------------------------------------------------------------=
   JOB DONE.
=------------------------------------------------------------------------------=
