
     Program PWSCF v.7.4 starts on 25Oct2025 at 15:40:46 

     This program is part of the open-source Quantum ESPRESSO suite
     for quantum simulation of materials; please cite
         "P. Giannozzi et al., J. Phys.:Condens. Matter 21 395502 (2009);
         "P. Giannozzi et al., J. Phys.:Condens. Matter 29 465901 (2017);
         "P. Giannozzi et al., J. Chem. Phys. 152 154105 (2020);
          URL http://www.quantum-espresso.org", 
     in publications or presentations arising from this work. More details at
     http://www.quantum-espresso.org/quote

     Parallel version (MPI & OpenMP), running on       8 processor cores
     Number of MPI processes:                 8
     Threads/MPI process:                     1

     MPI processes distributed on     1 nodes
     219252 MiB available memory on the printing compute node when the environment starts

     Reading input from TiFe_relaxed8.in

     Current dimensions of program PWSCF are:
     Max number of different atomic species (ntypx) = 10
     Max number of k-points (npk) =  40000
     Max angular momentum in pseudopotentials (lmaxx) =  4
     file Fe.pbe-spn-kjpaw_psl.0.2.1.UPF: wavefunction(s)  3D renormalized

     IMPORTANT: XC functional enforced from input :
     Exchange-correlation= PBE
                           (   1   4   3   4   0   0   0)
     Any further DFT definition will be discarded
     Please, verify this is what you really want

     Message from routine setup:
     using ibrav=0 with symmetry is DISCOURAGED, use correct ibrav instead

     R & G space division:  proc/nbgrp/npool/nimage =       8
     Subspace diagonalization in iterative solution of the eigenvalue problem:
     a serial algorithm will be used


     Parallelization info
     --------------------
     sticks:   dense  smooth     PW     G-vecs:    dense   smooth      PW
     Min         532     151     43                26154     3989     617
     Max         533     152     44                26155     3993     620
     Sum        4257    1209    349               209233    31919    4945

     Using Slab Decomposition



     bravais-lattice index     =            0
     lattice parameter (alat)  =       5.5533  a.u.
     unit-cell volume          =     171.2590 (a.u.)^3
     number of atoms/cell      =            2
     number of atomic types    =            2
     number of electrons       =        28.00
     number of Kohn-Sham states=           18
     kinetic-energy cutoff     =     124.0000  Ry
     charge density cutoff     =    1736.0000  Ry
     scf convergence threshold =      1.0E-08
     mixing beta               =       0.7000
     number of iterations used =            8  plain     mixing
     energy convergence thresh.=      1.0E-04
     force convergence thresh. =      1.0E-03
     press convergence thresh. =      5.0E-01
     Exchange-correlation= PBE
                           (   1   4   3   4   0   0   0)
     nstep                     =           50


     celldm(1)=   5.553300  celldm(2)=   0.000000  celldm(3)=   0.000000
     celldm(4)=   0.000000  celldm(5)=   0.000000  celldm(6)=   0.000000

     crystal axes: (cart. coord. in units of alat)
               a(1) = (   1.000000   0.000000   0.000000 )  
               a(2) = (   0.000000   1.000000   0.000000 )  
               a(3) = (   0.000000   0.000000   1.000000 )  

     reciprocal axes: (cart. coord. in units 2 pi/alat)
               b(1) = (  1.000000  0.000000  0.000000 )  
               b(2) = (  0.000000  1.000000  0.000000 )  
               b(3) = (  0.000000  0.000000  1.000000 )  


     PseudoPot. # 1 for Fe read from file:
     ../../pseudos/Fe.pbe-spn-kjpaw_psl.0.2.1.UPF
     MD5 check sum: e86618425769142926afa95317d90200
     Pseudo is Projector augmented-wave + core cor, Zval = 16.0
     Generated using "atomic" code by A. Dal Corso  v.5.0.99 svn rev. 10869
     Shape of augmentation charge: PSQ
     Using radial grid of 1191 points,  6 beta functions with: 
                l(1) =   0
                l(2) =   0
                l(3) =   1
                l(4) =   1
                l(5) =   2
                l(6) =   2
     Q(r) pseudized with 0 coefficients 


     PseudoPot. # 2 for Ti read from file:
     ../../pseudos/ti_pbe_v1.4.uspp.F.UPF
     MD5 check sum: 88a00a6731bd790ddea75d31a80cb452
     Pseudo is Ultrasoft + core correction, Zval = 12.0
     Generated by new atomic code, or converted to UPF format
     Using radial grid of  851 points,  6 beta functions with: 
                l(1) =   0
                l(2) =   0
                l(3) =   1
                l(4) =   1
                l(5) =   2
                l(6) =   2
     Q(r) pseudized with  6 coefficients,  rinner =    1.000   1.000   1.000
                                                       1.000   1.000

     atomic species   valence    mass     pseudopotential
     Fe               16.00    55.84500     Fe( 1.00)
     Ti               12.00    47.86700     Ti( 1.00)

     48 Sym. Ops., with inversion, found



   Cartesian axes

     site n.     atom                  positions (alat units)
         1        Fe     tau(   1) = (   0.5000000   0.5000000   0.5000000  )
         2        Ti     tau(   2) = (   0.0000000   0.0000000   0.0000000  )

     number of k points=    56  Marzari-Vanderbilt smearing, width (Ry)=  0.0050
                       cart. coord. in units 2pi/alat
        k(    1) = (   0.0000000   0.0000000   0.0000000), wk =   0.0015026
        k(    2) = (   0.0000000   0.0000000   0.0909091), wk =   0.0090158
        k(    3) = (   0.0000000   0.0000000   0.1818182), wk =   0.0090158
        k(    4) = (   0.0000000   0.0000000   0.2727273), wk =   0.0090158
        k(    5) = (   0.0000000   0.0000000   0.3636364), wk =   0.0090158
        k(    6) = (   0.0000000   0.0000000   0.4545455), wk =   0.0090158
        k(    7) = (   0.0000000   0.0909091   0.0909091), wk =   0.0180316
        k(    8) = (   0.0000000   0.0909091   0.1818182), wk =   0.0360631
        k(    9) = (   0.0000000   0.0909091   0.2727273), wk =   0.0360631
        k(   10) = (   0.0000000   0.0909091   0.3636364), wk =   0.0360631
        k(   11) = (   0.0000000   0.0909091   0.4545455), wk =   0.0360631
        k(   12) = (   0.0000000   0.1818182   0.1818182), wk =   0.0180316
        k(   13) = (   0.0000000   0.1818182   0.2727273), wk =   0.0360631
        k(   14) = (   0.0000000   0.1818182   0.3636364), wk =   0.0360631
        k(   15) = (   0.0000000   0.1818182   0.4545455), wk =   0.0360631
        k(   16) = (   0.0000000   0.2727273   0.2727273), wk =   0.0180316
        k(   17) = (   0.0000000   0.2727273   0.3636364), wk =   0.0360631
        k(   18) = (   0.0000000   0.2727273   0.4545455), wk =   0.0360631
        k(   19) = (   0.0000000   0.3636364   0.3636364), wk =   0.0180316
        k(   20) = (   0.0000000   0.3636364   0.4545455), wk =   0.0360631
        k(   21) = (   0.0000000   0.4545455   0.4545455), wk =   0.0180316
        k(   22) = (   0.0909091   0.0909091   0.0909091), wk =   0.0120210
        k(   23) = (   0.0909091   0.0909091   0.1818182), wk =   0.0360631
        k(   24) = (   0.0909091   0.0909091   0.2727273), wk =   0.0360631
        k(   25) = (   0.0909091   0.0909091   0.3636364), wk =   0.0360631
        k(   26) = (   0.0909091   0.0909091   0.4545455), wk =   0.0360631
        k(   27) = (   0.0909091   0.1818182   0.1818182), wk =   0.0360631
        k(   28) = (   0.0909091   0.1818182   0.2727273), wk =   0.0721262
        k(   29) = (   0.0909091   0.1818182   0.3636364), wk =   0.0721262
        k(   30) = (   0.0909091   0.1818182   0.4545455), wk =   0.0721262
        k(   31) = (   0.0909091   0.2727273   0.2727273), wk =   0.0360631
        k(   32) = (   0.0909091   0.2727273   0.3636364), wk =   0.0721262
        k(   33) = (   0.0909091   0.2727273   0.4545455), wk =   0.0721262
        k(   34) = (   0.0909091   0.3636364   0.3636364), wk =   0.0360631
        k(   35) = (   0.0909091   0.3636364   0.4545455), wk =   0.0721262
        k(   36) = (   0.0909091   0.4545455   0.4545455), wk =   0.0360631
        k(   37) = (   0.1818182   0.1818182   0.1818182), wk =   0.0120210
        k(   38) = (   0.1818182   0.1818182   0.2727273), wk =   0.0360631
        k(   39) = (   0.1818182   0.1818182   0.3636364), wk =   0.0360631
        k(   40) = (   0.1818182   0.1818182   0.4545455), wk =   0.0360631
        k(   41) = (   0.1818182   0.2727273   0.2727273), wk =   0.0360631
        k(   42) = (   0.1818182   0.2727273   0.3636364), wk =   0.0721262
        k(   43) = (   0.1818182   0.2727273   0.4545455), wk =   0.0721262
        k(   44) = (   0.1818182   0.3636364   0.3636364), wk =   0.0360631
        k(   45) = (   0.1818182   0.3636364   0.4545455), wk =   0.0721262
        k(   46) = (   0.1818182   0.4545455   0.4545455), wk =   0.0360631
        k(   47) = (   0.2727273   0.2727273   0.2727273), wk =   0.0120210
        k(   48) = (   0.2727273   0.2727273   0.3636364), wk =   0.0360631
        k(   49) = (   0.2727273   0.2727273   0.4545455), wk =   0.0360631
        k(   50) = (   0.2727273   0.3636364   0.3636364), wk =   0.0360631
        k(   51) = (   0.2727273   0.3636364   0.4545455), wk =   0.0721262
        k(   52) = (   0.2727273   0.4545455   0.4545455), wk =   0.0360631
        k(   53) = (   0.3636364   0.3636364   0.3636364), wk =   0.0120210
        k(   54) = (   0.3636364   0.3636364   0.4545455), wk =   0.0360631
        k(   55) = (   0.3636364   0.4545455   0.4545455), wk =   0.0360631
        k(   56) = (   0.4545455   0.4545455   0.4545455), wk =   0.0120210

     Dense  grid:   209233 G-vectors     FFT dimensions: (  75,  75,  75)

     Smooth grid:    31919 G-vectors     FFT dimensions: (  40,  40,  40)

     Estimated max dynamical RAM per process >     117.03 MB

     Estimated total dynamical RAM >     936.25 MB

     Check: negative core charge=   -0.000002

     Initial potential from superposition of free atoms

     starting charge      26.9995, renormalised to      28.0000

     negative rho (up, down):  1.347E-03 0.000E+00
     Starting wfcs are   23 randomized atomic wfcs
     Checking if some PAW data can be deallocated... 

     total cpu time spent up to now is        1.4 secs

     per-process dynamical memory:   142.7 Mb

     Self-consistent Calculation

     iteration #  1     ecut=   124.00 Ry     beta= 0.70
     Davidson diagonalization with overlap
     ethr =  1.00E-02,  avg # of iterations =  2.1

     negative rho (up, down):  7.937E-05 0.000E+00

     total cpu time spent up to now is        2.4 secs

     total energy              =    -434.89047275 Ry
     estimated scf accuracy    <      17.46535633 Ry

     iteration #  2     ecut=   124.00 Ry     beta= 0.70
     Davidson diagonalization with overlap
     ethr =  1.00E-02,  avg # of iterations =  6.0

     negative rho (up, down):  2.353E-05 0.000E+00

     total cpu time spent up to now is        4.0 secs

     total energy              =    -448.51249463 Ry
     estimated scf accuracy    <      66.10195194 Ry

     iteration #  3     ecut=   124.00 Ry     beta= 0.70
     Davidson diagonalization with overlap
     ethr =  1.00E-02,  avg # of iterations =  3.1

     negative rho (up, down):  2.377E-04 0.000E+00

     total cpu time spent up to now is        5.2 secs

     total energy              =    -448.59203340 Ry
     estimated scf accuracy    <      16.77106202 Ry

     iteration #  4     ecut=   124.00 Ry     beta= 0.70
     Davidson diagonalization with overlap
     ethr =  1.00E-02,  avg # of iterations =  2.2

     negative rho (up, down):  2.766E-04 0.000E+00

     total cpu time spent up to now is        6.2 secs

     total energy              =    -449.11252552 Ry
     estimated scf accuracy    <       4.68111793 Ry

     iteration #  5     ecut=   124.00 Ry     beta= 0.70
     Davidson diagonalization with overlap
     ethr =  1.00E-02,  avg # of iterations =  1.0

     negative rho (up, down):  3.285E-04 0.000E+00

     total cpu time spent up to now is        7.1 secs

     total energy              =    -449.11683000 Ry
     estimated scf accuracy    <       4.27451567 Ry

     iteration #  6     ecut=   124.00 Ry     beta= 0.70
     Davidson diagonalization with overlap
     ethr =  1.00E-02,  avg # of iterations =  1.0

     negative rho (up, down):  1.118E-03 0.000E+00

     total cpu time spent up to now is        8.0 secs

     total energy              =    -447.89068457 Ry
     estimated scf accuracy    <       4.50163493 Ry

     iteration #  7     ecut=   124.00 Ry     beta= 0.70
     Davidson diagonalization with overlap
     ethr =  1.00E-02,  avg # of iterations =  3.4

     negative rho (up, down):  1.015E-03 0.000E+00

     total cpu time spent up to now is        9.0 secs

     total energy              =    -448.58840447 Ry
     estimated scf accuracy    <       3.89651472 Ry

     iteration #  8     ecut=   124.00 Ry     beta= 0.70
     Davidson diagonalization with overlap
     ethr =  1.00E-02,  avg # of iterations =  1.0

     negative rho (up, down):  7.976E-04 0.000E+00

     total cpu time spent up to now is        9.9 secs

     total energy              =    -448.43997417 Ry
     estimated scf accuracy    <       1.27715295 Ry

     iteration #  9     ecut=   124.00 Ry     beta= 0.70
     Davidson diagonalization with overlap
     ethr =  4.56E-03,  avg # of iterations =  1.9

     negative rho (up, down):  7.977E-04 0.000E+00

     total cpu time spent up to now is       10.8 secs

     total energy              =    -448.60539805 Ry
     estimated scf accuracy    <       0.26863249 Ry

     iteration # 10     ecut=   124.00 Ry     beta= 0.70
     Davidson diagonalization with overlap
     ethr =  9.59E-04,  avg # of iterations =  1.3

     negative rho (up, down):  8.075E-04 0.000E+00

     total cpu time spent up to now is       11.7 secs

     total energy              =    -448.61289738 Ry
     estimated scf accuracy    <       0.28159432 Ry

     iteration # 11     ecut=   124.00 Ry     beta= 0.70
     Davidson diagonalization with overlap
     ethr =  9.59E-04,  avg # of iterations =  1.0

     negative rho (up, down):  7.617E-04 0.000E+00

     total cpu time spent up to now is       12.6 secs

     total energy              =    -448.67957078 Ry
     estimated scf accuracy    <       0.34549008 Ry

     iteration # 12     ecut=   124.00 Ry     beta= 0.70
     Davidson diagonalization with overlap
     ethr =  9.59E-04,  avg # of iterations =  1.8

     negative rho (up, down):  7.932E-04 0.000E+00

     total cpu time spent up to now is       13.5 secs

     total energy              =    -448.62277485 Ry
     estimated scf accuracy    <       1.28404054 Ry

     iteration # 13     ecut=   124.00 Ry     beta= 0.70
     Davidson diagonalization with overlap
     ethr =  9.59E-04,  avg # of iterations =  1.2

     negative rho (up, down):  9.274E-04 0.000E+00

     total cpu time spent up to now is       14.4 secs

     total energy              =    -448.63537755 Ry
     estimated scf accuracy    <       0.58154385 Ry

     iteration # 14     ecut=   124.00 Ry     beta= 0.70
     Davidson diagonalization with overlap
     ethr =  9.59E-04,  avg # of iterations =  1.0

     negative rho (up, down):  1.025E-03 0.000E+00

     total cpu time spent up to now is       15.3 secs

     total energy              =    -448.61055071 Ry
     estimated scf accuracy    <       0.50368914 Ry

     iteration # 15     ecut=   124.00 Ry     beta= 0.70
     Davidson diagonalization with overlap
     ethr =  9.59E-04,  avg # of iterations =  1.0

     negative rho (up, down):  1.032E-03 0.000E+00

     total cpu time spent up to now is       16.2 secs

     total energy              =    -448.61143942 Ry
     estimated scf accuracy    <       0.31963621 Ry

     iteration # 16     ecut=   124.00 Ry     beta= 0.70
     Davidson diagonalization with overlap
     ethr =  9.59E-04,  avg # of iterations =  1.0

     negative rho (up, down):  1.077E-03 0.000E+00

     total cpu time spent up to now is       17.1 secs

     total energy              =    -448.59313187 Ry
     estimated scf accuracy    <       0.28283031 Ry

     iteration # 17     ecut=   124.00 Ry     beta= 0.70
     Davidson diagonalization with overlap
     ethr =  9.59E-04,  avg # of iterations =  1.0

     negative rho (up, down):  1.074E-03 0.000E+00

     total cpu time spent up to now is       18.0 secs

     total energy              =    -448.60188466 Ry
     estimated scf accuracy    <       0.07727334 Ry

     iteration # 18     ecut=   124.00 Ry     beta= 0.70
     Davidson diagonalization with overlap
     ethr =  2.76E-04,  avg # of iterations =  1.6

     negative rho (up, down):  9.925E-04 0.000E+00

     total cpu time spent up to now is       18.9 secs

     total energy              =    -448.58361172 Ry
     estimated scf accuracy    <       0.14906512 Ry

     iteration # 19     ecut=   124.00 Ry     beta= 0.70
     Davidson diagonalization with overlap
     ethr =  2.76E-04,  avg # of iterations =  1.1

     negative rho (up, down):  9.436E-04 0.000E+00

     total cpu time spent up to now is       19.8 secs

     total energy              =    -448.59412596 Ry
     estimated scf accuracy    <       0.04848607 Ry

     iteration # 20     ecut=   124.00 Ry     beta= 0.70
     Davidson diagonalization with overlap
     ethr =  1.73E-04,  avg # of iterations =  1.1

     negative rho (up, down):  1.023E-03 0.000E+00

     total cpu time spent up to now is       20.6 secs

     total energy              =    -448.57755582 Ry
     estimated scf accuracy    <       0.17402922 Ry

     iteration # 21     ecut=   124.00 Ry     beta= 0.70
     Davidson diagonalization with overlap
     ethr =  1.73E-04,  avg # of iterations =  2.1

     negative rho (up, down):  1.012E-03 0.000E+00

     total cpu time spent up to now is       21.6 secs

     total energy              =    -448.58650556 Ry
     estimated scf accuracy    <       0.00384583 Ry

     iteration # 22     ecut=   124.00 Ry     beta= 0.70
     Davidson diagonalization with overlap
     ethr =  1.37E-05,  avg # of iterations =  4.6

     negative rho (up, down):  1.004E-03 0.000E+00

     total cpu time spent up to now is       22.7 secs

     total energy              =    -448.58691254 Ry
     estimated scf accuracy    <       0.00198474 Ry

     iteration # 23     ecut=   124.00 Ry     beta= 0.70
     Davidson diagonalization with overlap
     ethr =  7.09E-06,  avg # of iterations =  1.5

     negative rho (up, down):  1.006E-03 0.000E+00

     total cpu time spent up to now is       23.6 secs

     total energy              =    -448.58700272 Ry
     estimated scf accuracy    <       0.00176934 Ry

     iteration # 24     ecut=   124.00 Ry     beta= 0.70
     Davidson diagonalization with overlap
     ethr =  6.32E-06,  avg # of iterations =  1.0

     negative rho (up, down):  9.532E-04 0.000E+00

     total cpu time spent up to now is       24.4 secs

     total energy              =    -448.58622430 Ry
     estimated scf accuracy    <       0.00189335 Ry

     iteration # 25     ecut=   124.00 Ry     beta= 0.70
     Davidson diagonalization with overlap
     ethr =  6.32E-06,  avg # of iterations =  2.5

     negative rho (up, down):  9.519E-04 0.000E+00

     total cpu time spent up to now is       25.5 secs

     total energy              =    -448.58664002 Ry
     estimated scf accuracy    <       0.00120788 Ry

     iteration # 26     ecut=   124.00 Ry     beta= 0.70
     Davidson diagonalization with overlap
     ethr =  4.31E-06,  avg # of iterations =  1.0

     negative rho (up, down):  9.350E-04 0.000E+00

     total cpu time spent up to now is       26.4 secs

     total energy              =    -448.58685540 Ry
     estimated scf accuracy    <       0.00115499 Ry

     iteration # 27     ecut=   124.00 Ry     beta= 0.70
     Davidson diagonalization with overlap
     ethr =  4.12E-06,  avg # of iterations =  2.0

     negative rho (up, down):  9.665E-04 0.000E+00

     total cpu time spent up to now is       27.3 secs

     total energy              =    -448.58628947 Ry
     estimated scf accuracy    <       0.00358738 Ry

     iteration # 28     ecut=   124.00 Ry     beta= 0.70
     Davidson diagonalization with overlap
     ethr =  4.12E-06,  avg # of iterations =  2.0

     negative rho (up, down):  9.722E-04 0.000E+00

     total cpu time spent up to now is       28.3 secs

     total energy              =    -448.58652077 Ry
     estimated scf accuracy    <       0.00004731 Ry

     iteration # 29     ecut=   124.00 Ry     beta= 0.70
     Davidson diagonalization with overlap
     ethr =  1.69E-07,  avg # of iterations =  4.7

     negative rho (up, down):  9.640E-04 0.000E+00

     total cpu time spent up to now is       29.4 secs

     total energy              =    -448.58653251 Ry
     estimated scf accuracy    <       0.00024121 Ry

     iteration # 30     ecut=   124.00 Ry     beta= 0.70
     Davidson diagonalization with overlap
     ethr =  1.69E-07,  avg # of iterations =  3.7

     negative rho (up, down):  9.643E-04 0.000E+00

     total cpu time spent up to now is       30.5 secs

     total energy              =    -448.58655214 Ry
     estimated scf accuracy    <       0.00000020 Ry

     iteration # 31     ecut=   124.00 Ry     beta= 0.70
     Davidson diagonalization with overlap
     ethr =  7.22E-10,  avg # of iterations =  5.8

     negative rho (up, down):  9.639E-04 0.000E+00

     total cpu time spent up to now is       31.9 secs

     total energy              =    -448.58655245 Ry
     estimated scf accuracy    <       0.00000110 Ry

     iteration # 32     ecut=   124.00 Ry     beta= 0.70
     Davidson diagonalization with overlap
     ethr =  7.22E-10,  avg # of iterations =  3.7

     negative rho (up, down):  9.638E-04 0.000E+00

     total cpu time spent up to now is       32.9 secs

     total energy              =    -448.58655251 Ry
     estimated scf accuracy    <       0.00000016 Ry

     iteration # 33     ecut=   124.00 Ry     beta= 0.70
     Davidson diagonalization with overlap
     ethr =  5.58E-10,  avg # of iterations =  2.1

     negative rho (up, down):  9.641E-04 0.000E+00

     total cpu time spent up to now is       33.9 secs

     total energy              =    -448.58655247 Ry
     estimated scf accuracy    <       0.00000034 Ry

     iteration # 34     ecut=   124.00 Ry     beta= 0.70
     Davidson diagonalization with overlap
     ethr =  5.58E-10,  avg # of iterations =  2.0

     negative rho (up, down):  9.642E-04 0.000E+00

     total cpu time spent up to now is       34.8 secs

     total energy              =    -448.58655249 Ry
     estimated scf accuracy    <       0.00000001 Ry

     iteration # 35     ecut=   124.00 Ry     beta= 0.70
     Davidson diagonalization with overlap
     ethr =  5.03E-11,  avg # of iterations =  4.2

     negative rho (up, down):  9.641E-04 0.000E+00

     total cpu time spent up to now is       35.9 secs

     total energy              =    -448.58655249 Ry
     estimated scf accuracy    <       0.00000003 Ry

     iteration # 36     ecut=   124.00 Ry     beta= 0.70
     Davidson diagonalization with overlap
     ethr =  5.03E-11,  avg # of iterations =  3.8

     negative rho (up, down):  9.641E-04 0.000E+00

     total cpu time spent up to now is       37.0 secs

     total energy              =    -448.58655249 Ry
     estimated scf accuracy    <       0.00000001 Ry

     iteration # 37     ecut=   124.00 Ry     beta= 0.70
     Davidson diagonalization with overlap
     ethr =  3.67E-11,  avg # of iterations =  1.1

     negative rho (up, down):  9.642E-04 0.000E+00

     total cpu time spent up to now is       37.9 secs

     End of self-consistent calculation

          k = 0.0000 0.0000 0.0000 (  3911 PWs)   bands (ev):

   -69.2103 -39.1519 -35.2713 -35.2713 -35.2713 -15.2461 -15.2461 -15.2461
    10.1528  13.8638  13.8638  16.6568  16.6568  16.6568  18.9982  18.9982
    20.9365  20.9365

          k = 0.0000 0.0000 0.0909 (  3947 PWs)   bands (ev):

   -69.2100 -39.1497 -35.2739 -35.2710 -35.2710 -15.2754 -15.2443 -15.2443
    10.3257  13.9470  13.9536  16.6441  16.6441  16.6947  18.8926  19.0379
    20.6857  20.6857

          k = 0.0000 0.0000 0.1818 (  3964 PWs)   bands (ev):

   -69.2093 -39.1440 -35.2806 -35.2699 -35.2699 -15.3533 -15.2397 -15.2397
    10.8272  14.1866  14.1905  16.6148  16.6148  16.8008  18.5874  19.1278
    20.1021  20.1021

          k = 0.0000 0.0000 0.2727 (  3988 PWs)   bands (ev):

   -69.2083 -39.1366 -35.2894 -35.2686 -35.2686 -15.4541 -15.2335 -15.2335
    11.6057  14.4523  14.5738  16.5899  16.5899  16.9516  18.1202  19.1616
    19.4563  19.4563

          k = 0.0000 0.0000 0.3636 (  4008 PWs)   bands (ev):

   -69.2074 -39.1297 -35.2974 -35.2673 -35.2673 -15.5456 -15.2278 -15.2278
    12.5660  14.5651  15.0485  16.5850  16.5850  17.1052  17.5652  18.9274
    18.9274  18.9715

          k = 0.0000 0.0000 0.4545 (  3992 PWs)   bands (ev):

   -69.2069 -39.1256 -35.3021 -35.2666 -35.2666 -15.5994 -15.2245 -15.2245
    13.5347  14.3044  15.4744  16.5939  16.5939  17.0902  17.2053  18.6282
    18.6282  18.6588

          k = 0.0000 0.0909 0.0909 (  3966 PWs)   bands (ev):

   -69.2097 -39.1475 -35.2748 -35.2724 -35.2706 -15.2765 -15.2702 -15.2425
    10.4951  14.0265  14.0436  16.5616  16.6235  16.7909  18.8774  19.0086
    20.4103  20.4352

          k = 0.0000 0.0909 0.1818 (  3978 PWs)   bands (ev):

   -69.2090 -39.1414 -35.2811 -35.2723 -35.2696 -15.3509 -15.2676 -15.2376
    10.9856  14.2440  14.2906  16.4813  16.5732  16.9084  18.6426  19.0871
    19.8666  19.9000

          k = 0.0000 0.0909 0.2727 (  3995 PWs)   bands (ev):

   -69.2080 -39.1335 -35.2900 -35.2716 -35.2682 -15.4506 -15.2606 -15.2312
    11.7434  14.5128  14.6445  16.4377  16.5167  16.9935  18.2447  19.0577
    19.3653  19.4001

          k = 0.0000 0.0909 0.3636 (  3991 PWs)   bands (ev):

   -69.2071 -39.1262 -35.2982 -35.2708 -35.2670 -15.5411 -15.2541 -15.2253
    12.6707  14.6170  15.0808  16.4435  16.4656  16.9997  17.7899  18.6459
    19.0664  19.2132

          k = 0.0000 0.0909 0.4545 (  3999 PWs)   bands (ev):

   -69.2066 -39.1219 -35.3030 -35.2704 -35.2663 -15.5944 -15.2503 -15.2217
    13.5943  14.3519  15.4692  16.3968  16.4805  16.9451  17.4633  18.3527
    18.9323  19.0197

          k = 0.0000 0.1818 0.1818 (  3972 PWs)   bands (ev):

   -69.2082 -39.1345 -35.2840 -35.2772 -35.2686 -15.3519 -15.3343 -15.2321
    11.4401  14.3900  14.5687  16.3070  16.4778  16.9857  18.6948  19.0458
    19.3496  19.5758

          k = 0.0000 0.1818 0.2727 (  4003 PWs)   bands (ev):

   -69.2073 -39.1253 -35.2920 -35.2794 -35.2673 -15.4413 -15.3326 -15.2250
    12.1275  14.5565  14.9462  16.1858  16.3868  16.9101  18.5208  18.8014
    19.2048  19.3971

          k = 0.0000 0.1818 0.3636 (  3997 PWs)   bands (ev):

   -69.2064 -39.1169 -35.3004 -35.2802 -35.2661 -15.5291 -15.3242 -15.2184
    12.9354  14.5943  15.3322  16.1499  16.3572  16.7002  18.2182  18.4617
    19.3302  19.4170

          k = 0.0000 0.1818 0.4545 (  3990 PWs)   bands (ev):

   -69.2059 -39.1119 -35.3055 -35.2806 -35.2654 -15.5809 -15.3192 -15.2144
    13.6841  14.3630  15.6125  16.2009  16.3901  16.4819  18.0480  18.2166
    19.3519  19.5140

          k = 0.0000 0.2727 0.2727 (  4000 PWs)   bands (ev):

   -69.2063 -39.1146 -35.2961 -35.2880 -35.2661 -15.4378 -15.4172 -15.2168
    12.6688  14.5348  15.3963  15.9775  16.3399  16.6425  18.5788  18.7502
    19.1052  19.5703

          k = 0.0000 0.2727 0.3636 (  3993 PWs)   bands (ev):

   -69.2054 -39.1047 -35.3035 -35.2923 -35.2649 -15.5135 -15.4149 -15.2093
    13.2265  14.4165  15.8407  15.8678  16.3180  16.4951  18.3958  18.7291
    19.2748  19.8464

          k = 0.0000 0.2727 0.4545 (  3996 PWs)   bands (ev):

   -69.2049 -39.0988 -35.3088 -35.2939 -35.2643 -15.5633 -15.4084 -15.2048
    13.6460  14.2282  15.8808  16.0550  16.0845  16.8466  18.1510  18.6844
    19.4869  20.0941

          k = 0.0000 0.3636 0.3636 (  4002 PWs)   bands (ev):

   -69.2046 -39.0934 -35.3073 -35.3025 -35.2639 -15.5042 -15.4923 -15.2009
    13.4198  14.2078  15.6811  15.9708  16.4456  16.8939  18.5222  19.0880
    19.1103  20.2512

          k = 0.0000 0.3636 0.4545 (  3999 PWs)   bands (ev):

   -69.2040 -39.0867 -35.3119 -35.3061 -35.2632 -15.5470 -15.4894 -15.1960
    13.5038  14.0682  15.6293  15.7309  16.8140  17.5390  18.2827  19.1482
    19.3229  20.5544

          k = 0.0000 0.4545 0.4545 (  3998 PWs)   bands (ev):

   -69.2035 -39.0794 -35.3139 -35.3132 -35.2626 -15.5381 -15.5364 -15.1907
    13.3945  13.9723  15.5084  15.5425  17.5106  17.9878  18.6669  18.8520
    19.4119  20.8261

          k = 0.0909 0.0909 0.0909 (  3959 PWs)   bands (ev):

   -69.2094 -39.1451 -35.2744 -35.2744 -35.2711 -15.2769 -15.2684 -15.2684
    10.6615  14.1185  14.1185  16.5391  16.5391  16.8681  18.9294  18.9294
    19.9928  20.6651

          k = 0.0909 0.0909 0.1818 (  3966 PWs)   bands (ev):

   -69.2087 -39.1388 -35.2813 -35.2733 -35.2710 -15.3483 -15.2672 -15.2636
    11.1426  14.3361  14.3554  16.4286  16.4796  16.9503  18.7011  19.0492
    19.5188  20.0788

          k = 0.0909 0.0909 0.2727 (  3992 PWs)   bands (ev):

   -69.2077 -39.1304 -35.2905 -35.2719 -35.2707 -15.4471 -15.2591 -15.2574
    11.8826  14.6168  14.6736  16.3700  16.3987  16.9454  18.3564  19.0005
    19.3236  19.4428

          k = 0.0909 0.0909 0.3636 (  3994 PWs)   bands (ev):

   -69.2068 -39.1228 -35.2988 -35.2707 -35.2704 -15.5368 -15.2516 -15.2516
    12.7810  14.7008  15.0813  16.2989  16.4005  16.8595  17.9712  18.7163
    18.9368  19.4202

          k = 0.0909 0.0909 0.4545 (  4007 PWs)   bands (ev):

   -69.2063 -39.1183 -35.3038 -35.2702 -35.2699 -15.5896 -15.2481 -15.2471
    13.6656  14.4197  15.4383  16.1745  16.5156  16.7699  17.6949  18.4315
    18.6597  19.5237

          k = 0.0909 0.1818 0.1818 (  3984 PWs)   bands (ev):

   -69.2080 -39.1316 -35.2836 -35.2780 -35.2712 -15.3487 -15.3325 -15.2595
    11.5926  14.4938  14.6188  16.2700  16.3702  16.9131  18.7644  19.0172
    19.2358  19.7948

          k = 0.0909 0.1818 0.2727 (  3994 PWs)   bands (ev):

   -69.2070 -39.1222 -35.2919 -35.2795 -35.2705 -15.4380 -15.3301 -15.2518
    12.2705  14.6756  14.9647  16.1421  16.2715  16.7315  18.6109  18.9228
    19.2407  19.4559

          k = 0.0909 0.1818 0.3636 (  4001 PWs)   bands (ev):

   -69.2061 -39.1136 -35.3007 -35.2800 -35.2697 -15.5253 -15.3217 -15.2447
    13.0616  14.7215  15.2859  16.0686  16.2634  16.5479  18.3724  18.5771
    19.1012  19.7199

          k = 0.0909 0.1818 0.4545 (  3993 PWs)   bands (ev):

   -69.2056 -39.1084 -35.3060 -35.2802 -35.2692 -15.5768 -15.3167 -15.2405
    13.7875  14.4740  15.5175  16.0018  16.3647  16.4909  18.1991  18.2872
    18.8991  20.1084

          k = 0.0909 0.2727 0.2727 (  3989 PWs)   bands (ev):

   -69.2061 -39.1114 -35.2957 -35.2883 -35.2695 -15.4340 -15.4153 -15.2435
    12.8158  14.6587  15.4058  15.9390  16.2101  16.4306  18.6963  18.9063
    19.0873  19.7047

          k = 0.0909 0.2727 0.3636 (  3985 PWs)   bands (ev):

   -69.2052 -39.1015 -35.3033 -35.2922 -35.2686 -15.5103 -15.4125 -15.2357
    13.3703  14.5419  15.7742  15.8302  16.2030  16.3600  18.4780  18.8193
    19.1582  20.1172

          k = 0.0909 0.2727 0.4545 (  4006 PWs)   bands (ev):

   -69.2046 -39.0955 -35.3089 -35.2935 -35.2680 -15.5600 -15.4061 -15.2311
    13.7756  14.3545  15.7972  15.8477  16.1550  16.7541  18.1884  18.7887
    19.0873  20.6002

          k = 0.0909 0.3636 0.3636 (  3992 PWs)   bands (ev):

   -69.2043 -39.0903 -35.3068 -35.3024 -35.2675 -15.5011 -15.4904 -15.2274
    13.5656  14.3325  15.6506  15.8817  16.4032  16.7209  18.4860  18.9868
    19.1887  20.5636

          k = 0.0909 0.3636 0.4545 (  4002 PWs)   bands (ev):

   -69.2038 -39.0836 -35.3116 -35.3057 -35.2669 -15.5446 -15.4873 -15.2224
    13.6401  14.1966  15.5970  15.6797  16.7391  17.3611  18.2404  18.9494
    19.2815  20.7958

          k = 0.0909 0.4545 0.4545 (  3993 PWs)   bands (ev):

   -69.2033 -39.0765 -35.3134 -35.3128 -35.2662 -15.5360 -15.5345 -15.2173
    13.5314  14.1009  15.4860  15.5157  17.4523  17.8446  18.4160  18.5135
    19.4899  21.0193

          k = 0.1818 0.1818 0.1818 (  3989 PWs)   bands (ev):

   -69.2072 -39.1239 -35.2825 -35.2825 -35.2757 -15.3447 -15.3275 -15.3275
    12.0266  14.7610  14.7610  16.1712  16.1712  16.6504  18.9328  18.9328
    19.2929  20.0374

          k = 0.1818 0.1818 0.2727 (  3992 PWs)   bands (ev):

   -69.2063 -39.1139 -35.2921 -35.2810 -35.2777 -15.4292 -15.3259 -15.3210
    12.6697  14.9702  15.0333  16.0341  16.0388  16.3368  18.8049  19.0078
    19.4273  19.5988

          k = 0.1818 0.1818 0.3636 (  3994 PWs)   bands (ev):

   -69.2054 -39.1046 -35.3016 -35.2796 -35.2790 -15.5151 -15.3151 -15.3150
    13.3929  15.0074  15.2036  15.8991  16.0682  16.2649  18.6704  18.7433
    18.9523  20.1600

          k = 0.1818 0.1818 0.4545 (  3986 PWs)   bands (ev):

   -69.2049 -39.0991 -35.3073 -35.2797 -35.2788 -15.5658 -15.3114 -15.3085
    14.0172  14.6821  15.3921  15.7788  16.1845  16.4450  18.3322  18.5953
    18.6806  20.5298

          k = 0.1818 0.2727 0.2727 (  3994 PWs)   bands (ev):

   -69.2053 -39.1029 -35.2944 -35.2893 -35.2787 -15.4238 -15.4102 -15.3144
    13.2274  14.9964  15.4273  15.8397  15.9189  15.9976  18.8252  19.0096
    19.3284  20.0777

          k = 0.1818 0.2727 0.3636 (  3988 PWs)   bands (ev):

   -69.2045 -39.0928 -35.3031 -35.2918 -35.2783 -15.5017 -15.4060 -15.3061
    13.7701  14.8706  15.5749  15.7253  15.9737  16.0870  18.5905  18.8382
    19.2207  20.3803

          k = 0.1818 0.2727 0.4545 (  3991 PWs)   bands (ev):

   -69.2039 -39.0868 -35.3091 -35.2925 -35.2779 -15.5513 -15.4000 -15.3011
    14.1253  14.6660  15.5488  15.6706  16.0602  16.5356  18.2319  18.6757
    19.1297  20.6014

          k = 0.1818 0.3636 0.3636 (  3990 PWs)   bands (ev):

   -69.2036 -39.0819 -35.3055 -35.3022 -35.2773 -15.4929 -15.4852 -15.2979
    13.9820  14.6576  15.5747  15.6896  16.2719  16.2956  18.4622  18.6969
    19.4850  20.5435

          k = 0.1818 0.3636 0.4545 (  3993 PWs)   bands (ev):

   -69.2031 -39.0754 -35.3108 -35.3045 -35.2767 -15.5379 -15.4817 -15.2930
    14.0272  14.5323  15.5200  15.5675  16.4915  16.9250  18.1794  18.5402
    19.5616  20.7853

          k = 0.1818 0.4545 0.4545 (  4002 PWs)   bands (ev):

   -69.2026 -39.0686 -35.3120 -35.3116 -35.2760 -15.5305 -15.5294 -15.2882
    13.9234  14.4434  15.4329  15.4545  17.1746  17.2811  18.0690  18.2503
    19.7506  21.0765

          k = 0.2727 0.2727 0.2727 (  3998 PWs)   bands (ev):

   -69.2044 -39.0917 -35.2928 -35.2928 -35.2886 -15.4134 -15.4035 -15.4035
    13.7990  15.4441  15.4441  15.5182  15.7193  15.7193  18.8337  18.8337
    19.7983  19.7983

          k = 0.2727 0.2727 0.3636 (  3992 PWs)   bands (ev):

   -69.2035 -39.0814 -35.3030 -35.2913 -35.2908 -15.4906 -15.3975 -15.3973
    14.2965  15.1356  15.4426  15.6207  15.7209  15.9354  18.5785  18.6239
    19.6455  20.2947

          k = 0.2727 0.2727 0.4545 (  3990 PWs)   bands (ev):

   -69.2030 -39.0752 -35.3095 -35.2915 -35.2904 -15.5398 -15.3936 -15.3902
    14.5097  14.9115  15.4302  15.5701  15.9004  16.3710  18.1751  18.4970
    19.5914  20.6352

          k = 0.2727 0.3636 0.3636 (  3988 PWs)   bands (ev):

   -69.2027 -39.0709 -35.3037 -35.3021 -35.2902 -15.4822 -15.4785 -15.3893
    14.5957  15.0027  15.4917  15.5872  15.8170  16.0595  18.4143  18.4173
    19.9496  20.4946

          k = 0.2727 0.3636 0.4545 (  3992 PWs)   bands (ev):

   -69.2021 -39.0646 -35.3099 -35.3030 -35.2896 -15.5292 -15.4743 -15.3844
    14.5794  14.9171  15.4521  15.5076  16.1032  16.4659  18.0772  18.3312
    20.0120  20.8206

          k = 0.2727 0.4545 0.4545 (  4000 PWs)   bands (ev):

   -69.2016 -39.0583 -35.3102 -35.3100 -35.2888 -15.5232 -15.5227 -15.3800
    14.5067  14.8769  15.3854  15.4135  16.6254  16.6526  17.9060  18.1706
    20.1897  21.1136

          k = 0.3636 0.3636 0.3636 (  3999 PWs)   bands (ev):

   -69.2018 -39.0607 -35.3021 -35.3021 -35.3018 -15.4725 -15.4722 -15.4722
    14.9948  15.3300  15.4470  15.4470  15.8145  15.8145  18.2411  18.2411
    20.5002  20.5002

          k = 0.3636 0.3636 0.4545 (  4008 PWs)   bands (ev):

   -69.2013 -39.0547 -35.3090 -35.3018 -35.3011 -15.5212 -15.4685 -15.4665
    14.9931  15.1653  15.4767  15.6074  15.7984  16.1604  17.9824  18.1639
    20.5129  20.9126

          k = 0.3636 0.4545 0.4545 (  3994 PWs)   bands (ev):

   -69.2008 -39.0488 -35.3085 -35.3085 -35.3006 -15.5165 -15.5165 -15.4635
    15.1008  15.2495  15.3888  15.4963  16.0924  16.1437  17.8651  18.0301
    20.7353  21.1430

          k = 0.4545 0.4545 0.4545 (  3972 PWs)   bands (ev):

   -69.2003 -39.0431 -35.3076 -35.3075 -35.3075 -15.5128 -15.5128 -15.5124
    15.3317  15.4752  15.4752  15.7775  15.7775  15.8004  17.8552  17.8552
    21.1597  21.1597

     the Fermi energy is    17.5936 ev

!    total energy              =    -448.58655249 Ry
     estimated scf accuracy    <          7.2E-10 Ry
     smearing contrib. (-TS)   =       0.00005038 Ry
     internal energy E=F+TS    =    -448.58660287 Ry

     The total energy is F=E-TS. E is the sum of the following terms:
     one-electron contribution =    -151.34228261 Ry
     hartree contribution      =      91.61721390 Ry
     xc contribution           =     -52.88698661 Ry
     ewald contribution        =    -259.82070277 Ry
     one-center paw contrib.   =     -76.15384478 Ry

     convergence has been achieved in  37 iterations

     negative rho (up, down):  9.642E-04 0.000E+00

     Forces acting on atoms (cartesian axes, Ry/au):

     atom    1 type  1   force =     0.00000000    0.00000000    0.00000000
     atom    2 type  2   force =     0.00000000    0.00000000    0.00000000

     Total force =     0.000000     Total SCF correction =     0.000000


     Computing stress (Cartesian axis) and pressure


     negative rho (up, down):  9.642E-04 0.000E+00
          total   stress  (Ry/bohr**3)                   (kbar)     P=       31.49
   0.00021405   0.00000000   0.00000000           31.49        0.00        0.00
   0.00000000   0.00021405   0.00000000            0.00       31.49        0.00
   0.00000000   0.00000000   0.00021405            0.00        0.00       31.49


     BFGS Geometry Optimization
     Energy error            =      2.4E-02 Ry
     Gradient error          =      0.0E+00 Ry/Bohr
     Cell gradient error     =      1.9E+02 kbar

     number of scf cycles    =   1
     number of bfgs steps    =   0

     enthalpy           new  =    -448.3239259218 Ry

     new trust radius        =       0.0863360617 bohr
     new conv_thr            =       0.0000000100 Ry

     new unit-cell volume =    154.86425 a.u.^3 (    22.94851 Ang^3 )
     density =      7.50453 g/cm^3

CELL_PARAMETERS (alat=  5.55330037)
   0.967013557   0.000000000   0.000000000
   0.000000000   0.967013557   0.000000000
   0.000000000   0.000000000   0.967013557

ATOMIC_POSITIONS (crystal)
Fe               0.5000000000        0.5000000000        0.5000000000
Ti               0.0000000000        0.0000000000        0.0000000000



     Writing config-only to output data dir ./TiFe.save/ :
     XML data file
     NEW-OLD atomic charge density approx. for the potential
     New effective cutoffs (rho, wfc): 1856.32  132.60

     Check: negative core charge=   -0.000002

     negative rho (up, down):  8.913E-04 0.000E+00

     total cpu time spent up to now is       39.8 secs

     per-process dynamical memory:   153.1 Mb

     Self-consistent Calculation

     iteration #  1     ecut=   124.00 Ry     beta= 0.70
     Davidson diagonalization with overlap
     ethr =  1.00E-06,  avg # of iterations =  9.2

     negative rho (up, down):  9.190E-04 0.000E+00

     total cpu time spent up to now is       41.8 secs

     total energy              =    -448.56899412 Ry
     estimated scf accuracy    <       0.00133931 Ry

     iteration #  2     ecut=   124.00 Ry     beta= 0.70
     Davidson diagonalization with overlap
     ethr =  4.78E-06,  avg # of iterations =  4.3

     negative rho (up, down):  9.353E-04 0.000E+00

     total cpu time spent up to now is       43.0 secs

     total energy              =    -448.56425187 Ry
     estimated scf accuracy    <       0.07615317 Ry

     iteration #  3     ecut=   124.00 Ry     beta= 0.70
     Davidson diagonalization with overlap
     ethr =  4.78E-06,  avg # of iterations =  4.4

     negative rho (up, down):  9.293E-04 0.000E+00

     total cpu time spent up to now is       44.2 secs

     total energy              =    -448.56985338 Ry
     estimated scf accuracy    <       0.00120707 Ry

     iteration #  4     ecut=   124.00 Ry     beta= 0.70
     Davidson diagonalization with overlap
     ethr =  4.31E-06,  avg # of iterations =  1.1

     negative rho (up, down):  9.347E-04 0.000E+00

     total cpu time spent up to now is       45.1 secs

     total energy              =    -448.56994386 Ry
     estimated scf accuracy    <       0.00018044 Ry

     iteration #  5     ecut=   124.00 Ry     beta= 0.70
     Davidson diagonalization with overlap
     ethr =  6.44E-07,  avg # of iterations =  3.3

     negative rho (up, down):  9.353E-04 0.000E+00

     total cpu time spent up to now is       46.1 secs

     total energy              =    -448.56996514 Ry
     estimated scf accuracy    <       0.00000492 Ry

     iteration #  6     ecut=   124.00 Ry     beta= 0.70
     Davidson diagonalization with overlap
     ethr =  1.76E-08,  avg # of iterations =  4.8

     negative rho (up, down):  9.352E-04 0.000E+00

     total cpu time spent up to now is       47.3 secs

     total energy              =    -448.56996800 Ry
     estimated scf accuracy    <       0.00000092 Ry

     iteration #  7     ecut=   124.00 Ry     beta= 0.70
     Davidson diagonalization with overlap
     ethr =  3.30E-09,  avg # of iterations =  2.4

     negative rho (up, down):  9.359E-04 0.000E+00

     total cpu time spent up to now is       48.2 secs

     total energy              =    -448.56996756 Ry
     estimated scf accuracy    <       0.00000137 Ry

     iteration #  8     ecut=   124.00 Ry     beta= 0.70
     Davidson diagonalization with overlap
     ethr =  3.30E-09,  avg # of iterations =  2.7

     negative rho (up, down):  9.359E-04 0.000E+00

     total cpu time spent up to now is       49.2 secs

     total energy              =    -448.56996770 Ry
     estimated scf accuracy    <       0.00000013 Ry

     iteration #  9     ecut=   124.00 Ry     beta= 0.70
     Davidson diagonalization with overlap
     ethr =  4.73E-10,  avg # of iterations =  3.2

     negative rho (up, down):  9.359E-04 0.000E+00

     total cpu time spent up to now is       50.3 secs

     total energy              =    -448.56996771 Ry
     estimated scf accuracy    <       0.00000003 Ry

     iteration # 10     ecut=   124.00 Ry     beta= 0.70
     Davidson diagonalization with overlap
     ethr =  1.09E-10,  avg # of iterations =  4.4

     negative rho (up, down):  9.360E-04 0.000E+00

     total cpu time spent up to now is       51.4 secs

     End of self-consistent calculation

          k = 0.0000 0.0000 0.0000 (  3911 PWs)   bands (ev):

   -67.1239 -36.7886 -33.1902 -33.1902 -33.1902 -12.8456 -12.8456 -12.8456
    12.0151  15.4463  15.4463  18.6776  18.6776  18.6776  21.3205  21.3205
    23.5463  23.5463

          k = 0.0000 0.0000 0.0940 (  3947 PWs)   bands (ev):

   -67.1235 -36.7859 -33.1933 -33.1896 -33.1896 -12.8874 -12.8434 -12.8434
    12.2053  15.5393  15.5584  18.6638  18.6638  18.7209  21.1946  21.3692
    23.2548  23.2548

          k = 0.0000 0.0000 0.1880 (  3964 PWs)   bands (ev):

   -67.1222 -36.7789 -33.2014 -33.1880 -33.1880 -12.9985 -12.8374 -12.8374
    12.7536  15.8119  15.8548  18.6329  18.6329  18.8423  20.8321  21.4848
    22.5801  22.5801

          k = 0.0000 0.0000 0.2820 (  3988 PWs)   bands (ev):

   -67.1206 -36.7697 -33.2119 -33.1858 -33.1858 -13.1416 -12.8295 -12.8295
    13.5942  16.2150  16.2425  18.6093  18.6093  19.0152  20.2803  21.5554
    21.8356  21.8356

          k = 0.0000 0.0000 0.3760 (  4008 PWs)   bands (ev):

   -67.1191 -36.7613 -33.2214 -33.1838 -33.1838 -13.2708 -12.8223 -12.8223
    14.6092  16.4414  16.7794  18.6110  18.6110  19.1920  19.6289  21.2248
    21.2248  21.3942

          k = 0.0000 0.0000 0.4701 (  3992 PWs)   bands (ev):

   -67.1182 -36.7564 -33.2269 -33.1826 -33.1826 -13.3467 -12.8180 -12.8180
    15.5910  16.2934  17.2670  18.6276  18.6276  19.0719  19.3077  20.8773
    20.8773  21.0760

          k = 0.0000 0.0940 0.0940 (  3966 PWs)   bands (ev):

   -67.1230 -36.7830 -33.1955 -33.1904 -33.1890 -12.8899 -12.8795 -12.8410
    12.3909  15.6342  15.6644  18.5662  18.6411  18.8350  21.1773  21.3345
    22.9333  22.9656

          k = 0.0000 0.0940 0.1880 (  3978 PWs)   bands (ev):

   -67.1218 -36.7752 -33.2033 -33.1902 -33.1874 -12.9952 -12.8768 -12.8346
    12.9248  15.8869  15.9660  18.4733  18.5867  18.9733  20.8984  21.4357
    22.3118  22.3423

          k = 0.0000 0.0940 0.2820 (  3995 PWs)   bands (ev):

   -67.1201 -36.7650 -33.2138 -33.1895 -33.1853 -13.1363 -12.8676 -12.8263
    13.7383  16.2473  16.3653  18.4261  18.5276  19.0726  20.4281  21.4266
    21.7417  21.7659

          k = 0.0000 0.0940 0.3760 (  3991 PWs)   bands (ev):

   -67.1186 -36.7557 -33.2234 -33.1888 -33.1833 -13.2640 -12.8590 -12.8186
    14.7103  16.4837  16.8359  18.4395  18.4732  19.0761  19.8972  20.9511
    21.3838  21.6218

          k = 0.0000 0.0940 0.4701 (  3999 PWs)   bands (ev):

   -67.1177 -36.7502 -33.2291 -33.1884 -33.1821 -13.3389 -12.8539 -12.8140
    15.6363  16.3293  17.2714  18.3910  18.4917  19.0039  19.5258  20.6282
    21.2336  21.4288

          k = 0.0000 0.1880 0.1880 (  3972 PWs)   bands (ev):

   -67.1205 -36.7653 -33.2094 -33.1949 -33.1858 -12.9985 -12.9693 -12.8272
    13.4112  16.0625  16.2966  18.2694  18.4842  19.0682  20.9635  21.3853
    21.7250  21.9639

          k = 0.0000 0.1880 0.2820 (  4003 PWs)   bands (ev):

   -67.1189 -36.7524 -33.2194 -33.1990 -33.1838 -13.1228 -12.9684 -12.8175
    14.1310  16.2790  16.7466  18.1298  18.3937  18.9812  20.7525  21.1208
    21.5735  21.7594

          k = 0.0000 0.1880 0.3760 (  3997 PWs)   bands (ev):

   -67.1174 -36.7406 -33.2291 -33.2021 -33.1819 -13.2458 -12.9567 -12.8086
    14.9449  16.3992  17.1913  18.0917  18.3789  18.7330  20.3992  20.7439
    21.7515  21.7893

          k = 0.0000 0.1880 0.4701 (  3990 PWs)   bands (ev):

   -67.1165 -36.7335 -33.2349 -33.2038 -33.1808 -13.3182 -12.9496 -12.8033
    15.6489  16.2689  17.4948  18.1588  18.4415  18.4708  20.2069  20.4739
    21.8145  21.9078

          k = 0.0000 0.2820 0.2820 (  4000 PWs)   bands (ev):

   -67.1173 -36.7359 -33.2278 -33.2103 -33.1818 -13.1187 -13.0847 -12.8061
    14.6555  16.2745  17.2797  17.8879  18.3744  18.6694  20.8709  21.0171
    21.4724  21.9636

          k = 0.0000 0.2820 0.3760 (  3993 PWs)   bands (ev):

   -67.1158 -36.7206 -33.2369 -33.2192 -33.1801 -13.2220 -13.0826 -12.7955
    15.1475  16.1906  17.7627  17.8018  18.2900  18.5994  20.6734  20.9989
    21.6887  22.2880

          k = 0.0000 0.2820 0.4701 (  3996 PWs)   bands (ev):

   -67.1150 -36.7115 -33.2428 -33.2239 -33.1790 -13.2909 -13.0730 -12.7892
    15.4724  16.0571  17.7818  17.9809  18.0912  19.0338  20.4107  20.9376
    21.9765  22.5789

          k = 0.0000 0.3760 0.3760 (  4002 PWs)   bands (ev):

   -67.1144 -36.7022 -33.2447 -33.2343 -33.1784 -13.2082 -13.1885 -12.7835
    15.2209  15.9781  17.5471  17.8868  18.5017  19.1017  20.8476  21.4091
    21.5184  22.7589

          k = 0.0000 0.3760 0.4701 (  3999 PWs)   bands (ev):

   -67.1135 -36.6911 -33.2501 -33.2424 -33.1774 -13.2658 -13.1848 -12.7763
    15.2217  15.8484  17.4890  17.6074  18.9342  19.8280  20.5931  21.4909
    21.7912  23.1124

          k = 0.0000 0.4701 0.4701 (  3998 PWs)   bands (ev):

   -67.1127 -36.6789 -33.2547 -33.2532 -33.1764 -13.2520 -13.2493 -12.7686
    15.0602  15.7275  17.3494  17.3893  19.6964  20.2776  21.0950  21.3068
    21.7933  23.4284

          k = 0.0940 0.0940 0.0940 (  3959 PWs)   bands (ev):

   -67.1225 -36.7798 -33.1948 -33.1948 -33.1879 -12.8913 -12.8772 -12.8772
    12.5728  15.7480  15.7480  18.5409  18.5409  18.9284  21.2401  21.2401
    22.4517  23.2315

          k = 0.0940 0.0940 0.1880 (  3966 PWs)   bands (ev):

   -67.1213 -36.7714 -33.2039 -33.1931 -33.1875 -12.9917 -12.8766 -12.8711
    13.0946  15.9916  16.0465  18.4132  18.4746  19.0282  20.9684  21.3903
    21.9057  22.5552

          k = 0.0940 0.0940 0.2820 (  3992 PWs)   bands (ev):

   -67.1197 -36.7603 -33.2151 -33.1909 -33.1877 -13.1312 -12.8655 -12.8631
    13.8853  16.3707  16.3986  18.3506  18.3850  19.0229  20.5601  21.3529
    21.6946  21.8245

          k = 0.0940 0.0940 0.3760 (  3994 PWs)   bands (ev):

   -67.1182 -36.7502 -33.2251 -33.1888 -33.1879 -13.2575 -12.8557 -12.8551
    14.8205  16.5869  16.8306  18.2735  18.3954  18.9168  20.1087  21.0552
    21.2425  21.8331

          k = 0.0940 0.0940 0.4701 (  4007 PWs)   bands (ev):

   -67.1173 -36.7442 -33.2310 -33.1881 -33.1876 -13.3316 -12.8514 -12.8488
    15.7006  16.3983  17.2343  18.1315  18.5419  18.8071  19.7904  20.7605
    20.9219  21.9695

          k = 0.0940 0.1880 0.1880 (  3984 PWs)   bands (ev):

   -67.1201 -36.7611 -33.2088 -33.1977 -33.1880 -12.9937 -12.9670 -12.8657
    13.5764  16.1868  16.3525  18.2279  18.3534  18.9907  21.0468  21.3512
    21.5869  22.2272

          k = 0.0940 0.1880 0.2820 (  3994 PWs)   bands (ev):

   -67.1185 -36.7476 -33.2194 -33.2000 -33.1879 -13.1179 -12.9650 -12.8553
    14.2861  16.4163  16.7692  18.0819  18.2523  18.7777  20.8617  21.2642
    21.6077  21.8366

          k = 0.0940 0.1880 0.3760 (  4001 PWs)   bands (ev):

   -67.1170 -36.7352 -33.2299 -33.2020 -33.1871 -13.2401 -12.9533 -12.8456
    15.0807  16.5474  17.1340  18.0051  18.2601  18.5599  20.5752  20.8835
    21.4643  22.1648

          k = 0.0940 0.1880 0.4701 (  3993 PWs)   bands (ev):

   -67.1161 -36.7278 -33.2362 -33.2033 -33.1865 -13.3120 -12.9461 -12.8397
    15.7612  16.3960  17.3676  17.9471  18.3616  18.5307  20.3792  20.5624
    21.2413  22.6312

          k = 0.0940 0.2820 0.2820 (  3989 PWs)   bands (ev):

   -67.1169 -36.7309 -33.2270 -33.2113 -33.1868 -13.1130 -13.0823 -12.8436
    14.8192  16.4177  17.2892  17.8468  18.2127  18.4278  21.0071  21.1920
    21.4540  22.1315

          k = 0.0940 0.2820 0.3760 (  3985 PWs)   bands (ev):

   -67.1154 -36.7155 -33.2366 -33.2193 -33.1855 -13.2174 -13.0794 -12.8327
    15.3076  16.3346  17.6858  17.7554  18.1694  18.4320  20.7693  21.1009
    21.5444  22.6171

          k = 0.0940 0.2820 0.4701 (  4006 PWs)   bands (ev):

   -67.1145 -36.7063 -33.2432 -33.2234 -33.1846 -13.2863 -13.0701 -12.8262
    15.6152  16.1998  17.6863  17.7660  18.1644  18.9150  20.4573  21.0560
    21.4805  23.1709

          k = 0.0940 0.3760 0.3760 (  3992 PWs)   bands (ev):

   -67.1139 -36.6973 -33.2438 -33.2344 -33.1839 -13.2039 -13.1862 -12.8208
    15.3811  16.1219  17.5145  17.7873  18.4564  18.9011  20.7892  21.3790
    21.5216  23.1327

          k = 0.0940 0.3760 0.4701 (  4002 PWs)   bands (ev):

   -67.1131 -36.6864 -33.2497 -33.2418 -33.1829 -13.2626 -13.1822 -12.8136
    15.3718  15.9949  17.4551  17.5522  18.8578  19.6279  20.5299  21.3486
    21.6324  23.3813

          k = 0.0940 0.4701 0.4701 (  3993 PWs)   bands (ev):

   -67.1122 -36.6745 -33.2538 -33.2525 -33.1819 -13.2495 -13.2471 -12.8062
    15.2119  15.8751  17.3271  17.3622  19.6409  20.1493  20.7566  20.8982
    21.8780  23.6327

          k = 0.1880 0.1880 0.1880 (  3989 PWs)   bands (ev):

   -67.1188 -36.7496 -33.2069 -33.2069 -33.1922 -12.9883 -12.9607 -12.9607
    14.0414  16.5110  16.5110  18.1182  18.1182  18.6921  21.2507  21.2507
    21.6626  22.5085

          k = 0.1880 0.1880 0.2820 (  3992 PWs)   bands (ev):

   -67.1172 -36.7346 -33.2201 -33.2045 -33.1965 -13.1049 -12.9591 -12.9524
    14.7113  16.7440  16.8651  17.9661  17.9732  18.3265  21.0972  21.3669
    21.8065  22.0227

          k = 0.1880 0.1880 0.3760 (  3994 PWs)   bands (ev):

   -67.1158 -36.7207 -33.2324 -33.2023 -33.2003 -13.2248 -12.9448 -12.9430
    15.4230  16.9079  17.0015  17.8248  18.0259  18.2420  20.9335  21.0990
    21.2617  22.6771

          k = 0.1880 0.1880 0.4701 (  3986 PWs)   bands (ev):

   -67.1149 -36.7125 -33.2396 -33.2025 -33.2009 -13.2955 -12.9403 -12.9332
    15.9873  16.6170  17.2015  17.7050  18.1744  18.4878  20.6484  20.8326
    20.9580  23.0739

          k = 0.1880 0.2820 0.2820 (  3994 PWs)   bands (ev):

   -67.1157 -36.7175 -33.2250 -33.2144 -33.1998 -13.0977 -13.0760 -12.9432
    15.2744  16.8068  17.3084  17.7436  17.8484  17.9434  21.1509  21.3710
    21.6764  22.5843

          k = 0.1880 0.2820 0.3760 (  3988 PWs)   bands (ev):

   -67.1142 -36.7017 -33.2362 -33.2195 -33.2000 -13.2051 -13.0707 -12.9315
    15.7510  16.7094  17.4536  17.6283  17.9531  18.0751  20.8985  21.1838
    21.5507  22.8922

          k = 0.1880 0.2820 0.4701 (  3991 PWs)   bands (ev):

   -67.1133 -36.6923 -33.2442 -33.2217 -33.1996 -13.2738 -13.0620 -12.9243
    15.9980  16.5440  17.3992  17.5822  18.0790  18.6362  20.5177  20.9879
    21.4416  23.1540

          k = 0.1880 0.3760 0.3760 (  3990 PWs)   bands (ev):

   -67.1128 -36.6841 -33.2416 -33.2346 -33.1987 -13.1924 -13.1801 -12.9200
    15.8375  16.4944  17.4345  17.5780  18.3132  18.3984  20.7504  21.0436
    21.8574  23.0773

          k = 0.1880 0.3760 0.4701 (  3993 PWs)   bands (ev):

   -67.1119 -36.6736 -33.2486 -33.2399 -33.1978 -13.2539 -13.1753 -12.9130
    15.7963  16.3741  17.3745  17.4387  18.5972  19.1126  20.4544  20.8535
    21.9475  23.3599

          k = 0.1880 0.4701 0.4701 (  4002 PWs)   bands (ev):

   -67.1110 -36.6624 -33.2515 -33.2505 -33.1966 -13.2428 -13.2411 -12.9063
    15.6458  16.2669  17.2762  17.3034  19.3602  19.5269  20.3413  20.5250
    22.1722  23.6919

          k = 0.2820 0.2820 0.2820 (  3998 PWs)   bands (ev):

   -67.1141 -36.6998 -33.2223 -33.2223 -33.2129 -13.0817 -13.0677 -13.0677
    15.8851  17.3139  17.3139  17.3959  17.6268  17.6268  21.1727  21.1727
    22.2138  22.2138

          k = 0.2820 0.2820 0.3760 (  3992 PWs)   bands (ev):

   -67.1126 -36.6835 -33.2365 -33.2199 -33.2181 -13.1892 -13.0600 -13.0581
    16.3128  16.9975  17.2906  17.5428  17.6592  17.9046  20.8999  20.9281
    22.0349  22.7891

          k = 0.2820 0.2820 0.4701 (  3990 PWs)   bands (ev):

   -67.1118 -36.6738 -33.2458 -33.2203 -33.2184 -13.2575 -13.0554 -13.0471
    16.3881  16.7906  17.2624  17.5035  17.9215  18.4353  20.4535  20.7789
    21.9719  23.1894

          k = 0.2820 0.3760 0.3760 (  3988 PWs)   bands (ev):

   -67.1112 -36.6667 -33.2387 -33.2350 -33.2180 -13.1773 -13.1720 -13.0480
    16.4945  16.8818  17.3514  17.4990  17.8264  18.0741  20.6963  20.7134
    22.3887  23.0173

          k = 0.2820 0.3760 0.4701 (  3992 PWs)   bands (ev):

   -67.1104 -36.6567 -33.2473 -33.2375 -33.2172 -13.2425 -13.1662 -13.0413
    16.3922  16.7922  17.3068  17.4115  18.1713  18.5618  20.3326  20.6013
    22.4617  23.3978

          k = 0.2820 0.4701 0.4701 (  4000 PWs)   bands (ev):

   -67.1095 -36.6465 -33.2485 -33.2479 -33.2159 -13.2340 -13.2332 -13.0355
    16.2889  16.7559  17.2385  17.2799  18.7626  18.7750  20.1291  20.4285
    22.6719  23.7345

          k = 0.3760 0.3760 0.3760 (  3999 PWs)   bands (ev):

   -67.1098 -36.6507 -33.2360 -33.2360 -33.2351 -13.1645 -13.1645 -13.1629
    16.8105  17.3163  17.3163  17.4109  17.7887  17.7887  20.5042  20.5042
    23.0233  23.0233

          k = 0.3760 0.3760 0.4701 (  4008 PWs)   bands (ev):

   -67.1089 -36.6412 -33.2462 -33.2356 -33.2345 -13.2321 -13.1601 -13.1552
    16.8133  17.0458  17.3687  17.5382  17.8483  18.1944  20.2160  20.4128
    23.0380  23.5031

          k = 0.3760 0.4701 0.4701 (  3994 PWs)   bands (ev):

   -67.1081 -36.6319 -33.2457 -33.2456 -33.2336 -13.2260 -13.2259 -13.1525
    16.9376  17.1555  17.2661  17.4220  18.1344  18.1772  20.0777  20.2651
    23.2975  23.7690

          k = 0.4701 0.4701 0.4701 (  3972 PWs)   bands (ev):

   -67.1073 -36.6232 -33.2442 -33.2440 -33.2440 -13.2217 -13.2217 -13.2207
    17.2185  17.4033  17.4033  17.7229  17.7229  17.7913  20.0657  20.0657
    23.7888  23.7888

     the Fermi energy is    19.8144 ev

!    total energy              =    -448.56996771 Ry
     estimated scf accuracy    <          2.4E-09 Ry
     smearing contrib. (-TS)   =      -0.00003195 Ry
     internal energy E=F+TS    =    -448.56993576 Ry

     The total energy is F=E-TS. E is the sum of the following terms:
     one-electron contribution =    -137.76681585 Ry
     hartree contribution      =      87.11551298 Ry
     xc contribution           =     -53.07911881 Ry
     ewald contribution        =    -268.68361978 Ry
     one-center paw contrib.   =     -76.15589431 Ry

     convergence has been achieved in  10 iterations

     negative rho (up, down):  9.360E-04 0.000E+00

     Forces acting on atoms (cartesian axes, Ry/au):

     atom    1 type  1   force =     0.00000000    0.00000000    0.00000000
     atom    2 type  2   force =     0.00000000    0.00000000    0.00000000

     Total force =     0.000000     Total SCF correction =     0.000000


     Computing stress (Cartesian axis) and pressure


     negative rho (up, down):  9.360E-04 0.000E+00
          total   stress  (Ry/bohr**3)                   (kbar)     P=      285.13
   0.00193826   0.00000000   0.00000000          285.13        0.00        0.00
   0.00000000   0.00193826   0.00000000            0.00      285.13        0.00
   0.00000000   0.00000000   0.00193826            0.00        0.00      285.13

     Energy error            =      8.6E-03 Ry
     Gradient error          =      0.0E+00 Ry/Bohr
     Cell gradient error     =      6.0E+01 kbar

     number of scf cycles    =   2
     number of bfgs steps    =   1

     enthalpy           old  =    -448.3239259218 Ry
     enthalpy           new  =    -448.3324826217 Ry

     CASE: enthalpy          _new < enthalpy          _old

     new trust radius        =       0.0189251779 bohr
     new conv_thr            =            1.0E-10 Ry

     new unit-cell volume =    158.42388 a.u.^3 (    23.47600 Ang^3 )
     density =      7.33591 g/cm^3

CELL_PARAMETERS (alat=  5.55330037)
   0.974366597   0.000000000   0.000000000
   0.000000000   0.974366597   0.000000000
   0.000000000   0.000000000   0.974366597

ATOMIC_POSITIONS (crystal)
Fe               0.5000000000        0.5000000000        0.5000000000
Ti               0.0000000000        0.0000000000        0.0000000000



     Writing config-only to output data dir ./TiFe.save/ :
     XML data file
     NEW-OLD atomic charge density approx. for the potential
     New effective cutoffs (rho, wfc): 1828.40  130.60

     Check: negative core charge=   -0.000002

     negative rho (up, down):  9.603E-04 0.000E+00

     total cpu time spent up to now is       53.3 secs

     per-process dynamical memory:   153.1 Mb

     Self-consistent Calculation

     iteration #  1     ecut=   124.00 Ry     beta= 0.70
     Davidson diagonalization with overlap
     ethr =  1.00E-06,  avg # of iterations =  7.0

     negative rho (up, down):  9.471E-04 0.000E+00

     total cpu time spent up to now is       55.0 secs

     total energy              =    -448.57562470 Ry
     estimated scf accuracy    <       0.00017965 Ry

     iteration #  2     ecut=   124.00 Ry     beta= 0.70
     Davidson diagonalization with overlap
     ethr =  6.42E-07,  avg # of iterations =  4.4

     negative rho (up, down):  9.395E-04 0.000E+00

     total cpu time spent up to now is       56.2 secs

     total energy              =    -448.57516022 Ry
     estimated scf accuracy    <       0.01466199 Ry

     iteration #  3     ecut=   124.00 Ry     beta= 0.70
     Davidson diagonalization with overlap
     ethr =  6.42E-07,  avg # of iterations =  4.6

     negative rho (up, down):  9.415E-04 0.000E+00

     total cpu time spent up to now is       57.3 secs

     total energy              =    -448.57605980 Ry
     estimated scf accuracy    <       0.00004199 Ry

     iteration #  4     ecut=   124.00 Ry     beta= 0.70
     Davidson diagonalization with overlap
     ethr =  1.50E-07,  avg # of iterations =  2.0

     negative rho (up, down):  9.419E-04 0.000E+00

     total cpu time spent up to now is       58.3 secs

     total energy              =    -448.57606954 Ry
     estimated scf accuracy    <       0.00000261 Ry

     iteration #  5     ecut=   124.00 Ry     beta= 0.70
     Davidson diagonalization with overlap
     ethr =  9.34E-09,  avg # of iterations =  4.2

     negative rho (up, down):  9.411E-04 0.000E+00

     total cpu time spent up to now is       59.5 secs

     total energy              =    -448.57607111 Ry
     estimated scf accuracy    <       0.00000031 Ry

     iteration #  6     ecut=   124.00 Ry     beta= 0.70
     Davidson diagonalization with overlap
     ethr =  1.09E-09,  avg # of iterations =  3.0

     negative rho (up, down):  9.412E-04 0.000E+00

     total cpu time spent up to now is       60.6 secs

     total energy              =    -448.57607121 Ry
     estimated scf accuracy    <       0.00000015 Ry

     iteration #  7     ecut=   124.00 Ry     beta= 0.70
     Davidson diagonalization with overlap
     ethr =  5.49E-10,  avg # of iterations =  1.5

     negative rho (up, down):  9.412E-04 0.000E+00

     total cpu time spent up to now is       61.5 secs

     total energy              =    -448.57607123 Ry
     estimated scf accuracy    <          4.2E-09 Ry

     iteration #  8     ecut=   124.00 Ry     beta= 0.70
     Davidson diagonalization with overlap
     ethr =  1.51E-11,  avg # of iterations =  4.8

     negative rho (up, down):  9.412E-04 0.000E+00

     total cpu time spent up to now is       62.8 secs

     total energy              =    -448.57607123 Ry
     estimated scf accuracy    <          1.3E-10 Ry

     iteration #  9     ecut=   124.00 Ry     beta= 0.70
     Davidson diagonalization with overlap
     ethr =  4.76E-13,  avg # of iterations =  4.5

     negative rho (up, down):  9.412E-04 0.000E+00

     total cpu time spent up to now is       64.0 secs

     total energy              =    -448.57607123 Ry
     estimated scf accuracy    <          1.1E-10 Ry

     iteration # 10     ecut=   124.00 Ry     beta= 0.70
     Davidson diagonalization with overlap
     ethr =  3.95E-13,  avg # of iterations =  2.0

     negative rho (up, down):  9.412E-04 0.000E+00

     total cpu time spent up to now is       64.9 secs

     End of self-consistent calculation

          k = 0.0000 0.0000 0.0000 (  3911 PWs)   bands (ev):

   -67.6123 -37.3404 -33.6773 -33.6773 -33.6773 -13.4074 -13.4074 -13.4074
    11.5726  15.0780  15.0780  18.2051  18.2051  18.2051  20.7770  20.7770
    22.9345  22.9345

          k = 0.0000 0.0000 0.0933 (  3947 PWs)   bands (ev):

   -67.6119 -37.3379 -33.6803 -33.6767 -33.6767 -13.4460 -13.4053 -13.4053
    11.7587  15.1687  15.1847  18.1915  18.1915  18.2471  20.6560  20.8235
    22.6526  22.6526

          k = 0.0000 0.0000 0.1866 (  3964 PWs)   bands (ev):

   -67.6108 -37.3311 -33.6882 -33.6753 -33.6753 -13.5486 -13.3996 -13.3996
    12.2959  15.4345  15.4655  18.1609  18.1609  18.3649  20.3073  20.9328
    21.9994  21.9994

          k = 0.0000 0.0000 0.2799 (  3988 PWs)   bands (ev):

   -67.6094 -37.3222 -33.6984 -33.6733 -33.6733 -13.6809 -13.3921 -13.3921
    13.1220  15.8025  15.8541  18.1369  18.1369  18.5325  19.7758  20.9940
    21.2783  21.2783

          k = 0.0000 0.0000 0.3732 (  4008 PWs)   bands (ev):

   -67.6080 -37.3141 -33.7076 -33.6715 -33.6715 -13.8006 -13.3853 -13.3853
    14.1247  16.0010  16.3764  18.1369  18.1369  18.7038  19.1474  20.6870
    20.6870  20.8249

          k = 0.0000 0.0000 0.4665 (  3992 PWs)   bands (ev):

   -67.6072 -37.3093 -33.7130 -33.6704 -33.6704 -13.8709 -13.3812 -13.3812
    15.1048  15.8250  16.8496  18.1514  18.1514  18.6099  18.8158  20.3510
    20.3510  20.5069

          k = 0.0000 0.0933 0.0933 (  3966 PWs)   bands (ev):

   -67.6115 -37.3351 -33.6821 -33.6778 -33.6762 -13.4481 -13.4388 -13.4030
    11.9404  15.2599  15.2868  18.0976  18.1693  18.3569  20.6392  20.7901
    22.3421  22.3725

          k = 0.0000 0.0933 0.1866 (  3978 PWs)   bands (ev):

   -67.6104 -37.3276 -33.6895 -33.6777 -33.6747 -13.5455 -13.4361 -13.3970
    12.4641  15.5048  15.5745  18.0077  18.1158  18.4901  20.3709  20.8857
    21.7388  21.7702

          k = 0.0000 0.0933 0.2799 (  3995 PWs)   bands (ev):

   -67.6090 -37.3179 -33.6999 -33.6769 -33.6728 -13.6762 -13.4274 -13.3891
    13.2648  15.8453  15.9606  17.9613  18.0570  18.5860  19.9180  20.8714
    21.1848  21.2119

          k = 0.0000 0.0933 0.3732 (  3991 PWs)   bands (ev):

   -67.6076 -37.3090 -33.7093 -33.6761 -33.6710 -13.7944 -13.4194 -13.3818
    14.2271  16.0469  16.4258  17.9727  18.0033  18.5902  19.4051  20.4116
    20.8413  21.0557

          k = 0.0000 0.0933 0.4665 (  3999 PWs)   bands (ev):

   -67.6068 -37.3038 -33.7148 -33.6757 -33.6700 -13.8638 -13.4146 -13.3775
    15.1541  15.8642  16.8511  17.9243  18.0210  18.5224  19.0439  20.0960
    20.6949  20.8612

          k = 0.0000 0.1866 0.1866 (  3972 PWs)   bands (ev):

   -67.6093 -37.3185 -33.6948 -33.6825 -33.6733 -13.5482 -13.5221 -13.3901
    12.9432  15.6727  15.8930  17.8109  18.0147  18.5807  20.4330  20.8375
    21.1684  21.4048

          k = 0.0000 0.1866 0.2799 (  4003 PWs)   bands (ev):

   -67.6079 -37.3065 -33.7043 -33.6861 -33.6715 -13.6637 -13.5209 -13.3810
    13.6563  15.8774  16.3251  17.6756  17.9234  18.4964  20.2308  20.5774
    21.0183  21.2064

          k = 0.0000 0.1866 0.3732 (  3997 PWs)   bands (ev):

   -67.6066 -37.2955 -33.7139 -33.6885 -33.6698 -13.7778 -13.5101 -13.3727
    14.4706  15.9780  16.7551  17.6380  17.9042  18.2574  19.8896  20.2093
    21.1827  21.2338

          k = 0.0000 0.1866 0.4665 (  3990 PWs)   bands (ev):

   -67.6058 -37.2889 -33.7197 -33.6898 -33.6688 -13.8450 -13.5035 -13.3677
    15.1876  15.8223  17.0534  17.7010  17.9591  18.0059  19.7027  19.9450
    21.2345  21.3471

          k = 0.0000 0.2799 0.2799 (  4000 PWs)   bands (ev):

   -67.6064 -37.2915 -33.7115 -33.6967 -33.6697 -13.6597 -13.6293 -13.3704
    14.1867  15.8681  16.8385  17.4418  17.8961  18.1952  20.3341  20.4865
    20.9175  21.4033

          k = 0.0000 0.2799 0.3732 (  3993 PWs)   bands (ev):

   -67.6051 -37.2776 -33.7202 -33.7044 -33.6681 -13.7562 -13.6271 -13.3606
    14.6971  15.7753  17.3202  17.3418  17.8289  18.1032  20.1398  20.4677
    21.1218  21.7161

          k = 0.0000 0.2799 0.4665 (  3996 PWs)   bands (ev):

   -67.6044 -37.2694 -33.7262 -33.7081 -33.6672 -13.8203 -13.6183 -13.3548
    15.0458  15.6285  17.3378  17.5309  17.6198  18.5179  19.8813  20.4106
    21.3899  21.9966

          k = 0.0000 0.3732 0.3732 (  4002 PWs)   bands (ev):

   -67.6038 -37.2611 -33.7269 -33.7182 -33.6666 -13.7435 -13.7259 -13.3495
    14.8004  15.5630  17.1115  17.4391  18.0194  18.5808  20.3013  20.8657
    20.9526  22.1712

          k = 0.0000 0.3732 0.4665 (  3999 PWs)   bands (ev):

   -67.6031 -37.2513 -33.7322 -33.7250 -33.6657 -13.7975 -13.7224 -13.3429
    14.8205  15.4313  17.0549  17.1692  18.4366  19.2891  20.0499  20.9433
    21.2087  22.5127

          k = 0.0000 0.4665 0.4665 (  3998 PWs)   bands (ev):

   -67.6023 -37.2405 -33.7360 -33.7348 -33.6648 -13.7850 -13.7826 -13.3358
    14.6711  15.3164  16.9197  16.9582  19.1842  19.7407  20.5213  20.7272
    21.2354  22.8181

          k = 0.0933 0.0933 0.0933 (  3959 PWs)   bands (ev):

   -67.6111 -37.3321 -33.6815 -33.6815 -33.6756 -13.4492 -13.4366 -13.4366
    12.1187  15.3683  15.3683  18.0730  18.0730  18.4464  20.6994  20.6994
    21.8756  22.6299

          k = 0.0933 0.0933 0.1866 (  3966 PWs)   bands (ev):

   -67.6100 -37.3241 -33.6901 -33.6799 -33.6754 -13.5423 -13.4358 -13.4308
    12.6310  15.6059  15.6518  17.9494  18.0081  18.5418  20.4381  20.8421
    21.3467  21.9748

          k = 0.0933 0.0933 0.2799 (  3992 PWs)   bands (ev):

   -67.6086 -37.3136 -33.7009 -33.6779 -33.6754 -13.6715 -13.4255 -13.4232
    13.4101  15.9753  15.9817  17.8874  17.9206  18.5365  20.0451  20.8019
    21.1389  21.2665

          k = 0.0933 0.0933 0.3732 (  3994 PWs)   bands (ev):

   -67.6072 -37.3041 -33.7107 -33.6761 -33.6754 -13.7885 -13.4162 -13.4158
    14.3376  16.1443  16.4230  17.8117  17.9285  18.4354  19.6094  20.5072
    20.7026  21.2665

          k = 0.0933 0.0933 0.4665 (  4007 PWs)   bands (ev):

   -67.6064 -37.2984 -33.7164 -33.6755 -33.6750 -13.8572 -13.4121 -13.4100
    15.2203  15.9327  16.8158  17.6738  18.0671  18.3305  19.3009  20.2143
    20.3925  21.3944

          k = 0.0933 0.1866 0.1866 (  3984 PWs)   bands (ev):

   -67.6089 -37.3146 -33.6942 -33.6846 -33.6758 -13.5438 -13.5199 -13.4258
    13.1055  15.7920  15.9475  17.7704  17.8896  18.5042  20.5129  20.8047
    21.0363  21.6573

          k = 0.0933 0.1866 0.2799 (  3994 PWs)   bands (ev):

   -67.6075 -37.3021 -33.7043 -33.6868 -33.6755 -13.6592 -13.5178 -13.4160
    13.8084  16.0103  16.3467  17.6287  17.7885  18.2987  20.3354  20.7155
    21.0530  21.2790

          k = 0.0933 0.1866 0.3732 (  4001 PWs)   bands (ev):

   -67.6062 -37.2906 -33.7145 -33.6883 -33.6746 -13.7726 -13.5069 -13.4069
    14.6040  16.1213  16.7004  17.5524  17.7917  18.0892  20.0604  20.3432
    20.9101  21.5911

          k = 0.0933 0.1866 0.4665 (  3993 PWs)   bands (ev):

   -67.6054 -37.2838 -33.7207 -33.6893 -33.6740 -13.8394 -13.5003 -13.4015
    15.2976  15.9455  16.9345  17.4919  17.8942  18.0513  19.8705  20.0288
    20.6917  22.0383

          k = 0.0933 0.2799 0.2799 (  3989 PWs)   bands (ev):

   -67.6061 -37.2870 -33.7108 -33.6975 -33.6743 -13.6545 -13.6270 -13.4051
    14.3463  16.0066  16.8481  17.4011  17.7424  17.9606  20.4657  20.6571
    20.8992  21.5628

          k = 0.0933 0.2799 0.3732 (  3985 PWs)   bands (ev):

   -67.6047 -37.2730 -33.7200 -33.7044 -33.6731 -13.7519 -13.6241 -13.3950
    14.8533  15.9148  17.2415  17.3020  17.7094  17.9435  20.2324  20.5673
    20.9842  22.0307

          k = 0.0933 0.2799 0.4665 (  4006 PWs)   bands (ev):

   -67.6040 -37.2647 -33.7264 -33.7076 -33.6723 -13.8160 -13.6155 -13.3890
    15.1855  15.7672  17.2451  17.3176  17.6924  18.4054  19.9256  20.5259
    20.9181  22.5680

          k = 0.0933 0.3732 0.3732 (  3992 PWs)   bands (ev):

   -67.6034 -37.2567 -33.7261 -33.7182 -33.6716 -13.7395 -13.7237 -13.3840
    14.9573  15.7021  17.0794  17.3420  17.9745  18.3864  20.2489  20.8170
    20.9756  22.5298

          k = 0.0933 0.3732 0.4665 (  4002 PWs)   bands (ev):

   -67.6027 -37.2470 -33.7318 -33.7244 -33.6707 -13.7944 -13.7199 -13.3775
    14.9673  15.5734  17.0213  17.1148  18.3603  19.0935  19.9925  20.7844
    21.0820  22.7752

          k = 0.0933 0.4665 0.4665 (  3993 PWs)   bands (ev):

   -67.6019 -37.2364 -33.7353 -33.7341 -33.6698 -13.7826 -13.7804 -13.3706
    14.8193  15.4594  16.8973  16.9311  19.1278  19.6078  20.2053  20.3360
    21.3188  23.0201

          k = 0.1866 0.1866 0.1866 (  3989 PWs)   bands (ev):

   -67.6078 -37.3041 -33.6925 -33.6925 -33.6802 -13.5387 -13.5139 -13.5139
    13.5633  16.1022  16.1022  17.6631  17.6631  18.2141  20.7081  20.7081
    21.1074  21.9293

          k = 0.1866 0.1866 0.2799 (  3992 PWs)   bands (ev):

   -67.6064 -37.2903 -33.7048 -33.6903 -33.6839 -13.6473 -13.5123 -13.5060
    14.2276  16.3297  16.4364  17.5142  17.5209  17.8610  20.5609  20.8139
    21.2491  21.4544

          k = 0.1866 0.1866 0.3732 (  3994 PWs)   bands (ev):

   -67.6051 -37.2777 -33.7165 -33.6884 -33.6868 -13.7586 -13.4988 -13.4976
    14.9440  16.4622  16.5818  17.3741  17.5669  17.7793  20.4044  20.5462
    20.7207  22.0862

          k = 0.1866 0.1866 0.4665 (  3986 PWs)   bands (ev):

   -67.6043 -37.2701 -33.7235 -33.6886 -33.6872 -13.8243 -13.4945 -13.4886
    15.5247  16.1633  16.7793  17.2538  17.7076  18.0077  20.1048  20.3100
    20.4244  22.4778

          k = 0.1866 0.2799 0.2799 (  3994 PWs)   bands (ev):

   -67.6050 -37.2748 -33.7090 -33.7000 -33.6864 -13.6405 -13.6210 -13.4975
    14.7907  16.3834  16.8682  17.2983  17.3967  17.4879  20.6060  20.8173
    21.1269  21.9960

          k = 0.1866 0.2799 0.3732 (  3988 PWs)   bands (ev):

   -67.6037 -37.2606 -33.7197 -33.7044 -33.6864 -13.7405 -13.6160 -13.4866
    15.2862  16.2785  17.0150  17.1827  17.4886  17.6074  20.3576  20.6335
    21.0055  22.3038

          k = 0.1866 0.2799 0.4665 (  3991 PWs)   bands (ev):

   -67.6029 -37.2521 -33.7273 -33.7061 -33.6860 -13.8045 -13.6079 -13.4800
    15.5605  16.1039  16.9670  17.1346  17.6042  18.1412  19.9818  20.4456
    20.9009  22.5558

          k = 0.1866 0.3732 0.3732 (  3990 PWs)   bands (ev):

   -67.6024 -37.2448 -33.7242 -33.7183 -33.6851 -13.7289 -13.7177 -13.4759
    15.4046  16.0631  17.0002  17.1366  17.8338  17.9018  20.2141  20.4926
    21.3022  22.4838

          k = 0.1866 0.3732 0.4665 (  3993 PWs)   bands (ev):

   -67.6016 -37.2354 -33.7308 -33.7227 -33.6843 -13.7862 -13.7133 -13.4695
    15.3830  15.9423  16.9415  17.0011  18.1020  18.5967  19.9209  20.3105
    21.3891  22.7566

          k = 0.1866 0.4665 0.4665 (  4002 PWs)   bands (ev):

   -67.6009 -37.2254 -33.7332 -33.7324 -33.6833 -13.7761 -13.7745 -13.4633
    15.2431  15.8393  16.8457  16.8714  18.8465  18.9974  19.8074  19.9918
    21.6052  23.0790

          k = 0.2799 0.2799 0.2799 (  3998 PWs)   bands (ev):

   -67.6036 -37.2589 -33.7066 -33.7066 -33.6988 -13.6261 -13.6130 -13.6130
    15.3916  16.8771  16.8771  16.9570  17.1795  17.1795  20.6242  20.6242
    21.6484  21.6484

          k = 0.2799 0.2799 0.3732 (  3992 PWs)   bands (ev):

   -67.6023 -37.2442 -33.7198 -33.7044 -33.7031 -13.7258 -13.6056 -13.6044
    15.8400  16.5615  16.8593  17.0915  17.2036  17.4420  20.3552  20.3880
    21.4758  22.2049

          k = 0.2799 0.2799 0.4665 (  3990 PWs)   bands (ev):

   -67.6015 -37.2355 -33.7284 -33.7048 -33.7031 -13.7894 -13.6013 -13.5944
    15.9497  16.3508  16.8343  17.0497  17.4454  17.9491  19.9190  20.2443
    21.4149  22.5909

          k = 0.2799 0.3732 0.3732 (  3988 PWs)   bands (ev):

   -67.6010 -37.2291 -33.7216 -33.7185 -33.7027 -13.7149 -13.7099 -13.5947
    16.0533  16.4400  16.9170  17.0510  17.3512  17.6006  20.1614  20.1748
    21.8177  22.4265

          k = 0.2799 0.3732 0.4665 (  3992 PWs)   bands (ev):

   -67.6002 -37.2202 -33.7296 -33.7205 -33.7020 -13.7755 -13.7045 -13.5885
    15.9687  16.3531  16.8735  16.9650  17.6841  18.0679  19.8038  20.0693
    21.8882  22.7939

          k = 0.2799 0.4665 0.4665 (  4000 PWs)   bands (ev):

   -67.5995 -37.2110 -33.7305 -33.7301 -33.7009 -13.7676 -13.7669 -13.5830
    15.8719  16.3151  16.8054  16.8432  18.2589  18.2754  19.6081  19.8995
    22.0906  23.1203

          k = 0.3732 0.3732 0.3732 (  3999 PWs)   bands (ev):

   -67.5997 -37.2147 -33.7192 -33.7192 -33.7184 -13.7027 -13.7027 -13.7017
    16.3864  16.8795  16.8795  16.9198  17.3244  17.3244  19.9738  19.9738
    22.4323  22.4323

          k = 0.3732 0.3732 0.4665 (  4008 PWs)   bands (ev):

   -67.5990 -37.2061 -33.7285 -33.7188 -33.7178 -13.7656 -13.6984 -13.6944
    16.3877  16.6062  16.9275  17.0830  17.3654  17.7155  19.6926  19.8859
    22.4466  22.8961

          k = 0.3732 0.4665 0.4665 (  3994 PWs)   bands (ev):

   -67.5982 -37.1977 -33.7280 -33.7279 -33.7170 -13.7598 -13.7597 -13.6915
    16.5077  16.7091  16.8269  16.9698  17.6533  17.6986  19.5594  19.7415
    22.6972  23.1535

          k = 0.4665 0.4665 0.4665 (  3972 PWs)   bands (ev):

   -67.5975 -37.1898 -33.7267 -33.7265 -33.7265 -13.7556 -13.7556 -13.7548
    16.7768  16.9518  16.9518  17.2652  17.2652  17.3227  19.5480  19.5480
    23.1726  23.1726

     the Fermi energy is    19.3019 ev

!    total energy              =    -448.57607123 Ry
     estimated scf accuracy    <          3.2E-12 Ry
     smearing contrib. (-TS)   =      -0.00003950 Ry
     internal energy E=F+TS    =    -448.57603173 Ry

     The total energy is F=E-TS. E is the sum of the following terms:
     one-electron contribution =    -140.85627990 Ry
     hartree contribution      =      88.12470166 Ry
     xc contribution           =     -53.03296817 Ry
     ewald contribution        =    -266.65600359 Ry
     one-center paw contrib.   =     -76.15548173 Ry

     convergence has been achieved in  10 iterations

     negative rho (up, down):  9.412E-04 0.000E+00

     Forces acting on atoms (cartesian axes, Ry/au):

     atom    1 type  1   force =     0.00000000    0.00000000    0.00000000
     atom    2 type  2   force =     0.00000000    0.00000000    0.00000000

     Total force =     0.000000     Total SCF correction =     0.000000


     Computing stress (Cartesian axis) and pressure


     negative rho (up, down):  9.412E-04 0.000E+00
          total   stress  (Ry/bohr**3)                   (kbar)     P=      220.06
   0.00149592   0.00000000   0.00000000          220.06        0.00        0.00
   0.00000000   0.00149592   0.00000000            0.00      220.06        0.00
   0.00000000   0.00000000   0.00149592            0.00        0.00      220.06

     Energy error            =      6.4E-04 Ry
     Gradient error          =      0.0E+00 Ry/Bohr
     Cell gradient error     =      5.5E+00 kbar

     number of scf cycles    =   3
     number of bfgs steps    =   2

     enthalpy           old  =    -448.3324826217 Ry
     enthalpy           new  =    -448.3331274292 Ry

     CASE: enthalpy          _new < enthalpy          _old

     new trust radius        =       0.0016367761 bohr
     new conv_thr            =            1.0E-10 Ry

     new unit-cell volume =    158.11506 a.u.^3 (    23.43023 Ang^3 )
     density =      7.35024 g/cm^3

CELL_PARAMETERS (alat=  5.55330037)
   0.973733061   0.000000000   0.000000000
   0.000000000   0.973733061   0.000000000
   0.000000000   0.000000000   0.973733061

ATOMIC_POSITIONS (crystal)
Fe               0.5000000000        0.5000000000        0.5000000000
Ti               0.0000000000        0.0000000000        0.0000000000



     Writing config-only to output data dir ./TiFe.save/ :
     XML data file
     NEW-OLD atomic charge density approx. for the potential
     New effective cutoffs (rho, wfc): 1830.78  130.77

     Check: negative core charge=   -0.000002

     negative rho (up, down):  9.387E-04 0.000E+00

     total cpu time spent up to now is       66.9 secs

     per-process dynamical memory:   153.3 Mb

     Self-consistent Calculation

     iteration #  1     ecut=   124.00 Ry     beta= 0.70
     Davidson diagonalization with overlap
     ethr =  1.00E-06,  avg # of iterations =  2.0

     Threshold (ethr) on eigenvalues was too large:
     Diagonalizing with lowered threshold

     Davidson diagonalization with overlap
     ethr =  7.94E-10,  avg # of iterations =  6.4

     negative rho (up, down):  9.398E-04 0.000E+00

     total cpu time spent up to now is       69.2 secs

     total energy              =    -448.57560074 Ry
     estimated scf accuracy    <       0.00000042 Ry

     iteration #  2     ecut=   124.00 Ry     beta= 0.70
     Davidson diagonalization with overlap
     ethr =  1.52E-09,  avg # of iterations =  4.5

     negative rho (up, down):  9.403E-04 0.000E+00

     total cpu time spent up to now is       70.4 secs

     total energy              =    -448.57560139 Ry
     estimated scf accuracy    <       0.00002704 Ry

     iteration #  3     ecut=   124.00 Ry     beta= 0.70
     Davidson diagonalization with overlap
     ethr =  1.52E-09,  avg # of iterations =  4.7

     negative rho (up, down):  9.403E-04 0.000E+00

[...]
     estimated scf accuracy    <       0.00000006 Ry

     iteration # 29     ecut=   124.00 Ry     beta= 0.70
     Davidson diagonalization with overlap
     ethr =  2.17E-10,  avg # of iterations =  6.3

     negative rho (up, down):  9.696E-04 0.000E+00

     total cpu time spent up to now is      110.3 secs

     total energy              =    -448.57548198 Ry
     estimated scf accuracy    <       0.00000006 Ry

     iteration # 30     ecut=   124.00 Ry     beta= 0.70
     Davidson diagonalization with overlap
     ethr =  2.17E-10,  avg # of iterations =  1.6

     negative rho (up, down):  9.697E-04 0.000E+00

     total cpu time spent up to now is      111.2 secs

     total energy              =    -448.57548198 Ry
     estimated scf accuracy    <       0.00000012 Ry

     iteration # 31     ecut=   124.00 Ry     beta= 0.70
     Davidson diagonalization with overlap
     ethr =  2.17E-10,  avg # of iterations =  1.0

     negative rho (up, down):  9.697E-04 0.000E+00

     total cpu time spent up to now is      112.0 secs

     total energy              =    -448.57548198 Ry
     estimated scf accuracy    <       0.00000004 Ry

     iteration # 32     ecut=   124.00 Ry     beta= 0.70
     Davidson diagonalization with overlap
     ethr =  1.52E-10,  avg # of iterations =  1.0

     negative rho (up, down):  9.697E-04 0.000E+00

     total cpu time spent up to now is      112.9 secs

     total energy              =    -448.57548197 Ry
     estimated scf accuracy    <       0.00000004 Ry

     iteration # 33     ecut=   124.00 Ry     beta= 0.70
     Davidson diagonalization with overlap
     ethr =  1.42E-10,  avg # of iterations =  2.0

     negative rho (up, down):  9.696E-04 0.000E+00

     total cpu time spent up to now is      113.8 secs

     total energy              =    -448.57548198 Ry
     estimated scf accuracy    <          1.4E-09 Ry

     iteration # 34     ecut=   124.00 Ry     beta= 0.70
     Davidson diagonalization with overlap
     ethr =  5.15E-12,  avg # of iterations =  5.2

     negative rho (up, down):  9.696E-04 0.000E+00

     total cpu time spent up to now is      115.0 secs

     total energy              =    -448.57548198 Ry
     estimated scf accuracy    <          3.8E-09 Ry

     iteration # 35     ecut=   124.00 Ry     beta= 0.70
     Davidson diagonalization with overlap
     ethr =  5.15E-12,  avg # of iterations =  3.8

     negative rho (up, down):  9.696E-04 0.000E+00

     total cpu time spent up to now is      116.1 secs

     total energy              =    -448.57548198 Ry
     estimated scf accuracy    <          3.0E-10 Ry

     iteration # 36     ecut=   124.00 Ry     beta= 0.70
     Davidson diagonalization with overlap
     ethr =  1.06E-12,  avg # of iterations =  2.0

     negative rho (up, down):  9.696E-04 0.000E+00

     total cpu time spent up to now is      117.1 secs

     End of self-consistent calculation

          k = 0.0000 0.0000 0.0000 (  3743 PWs)   bands (ev):

   -67.5707 -37.2934 -33.6357 -33.6357 -33.6357 -13.3596 -13.3596 -13.3596
    11.6102  15.1094  15.1094  18.2454  18.2454  18.2454  20.8232  20.8232
    22.9865  22.9865

          k = 0.0000 0.0000 0.0934 (  3743 PWs)   bands (ev):

   -67.5703 -37.2909 -33.6386 -33.6351 -33.6351 -13.3985 -13.3575 -13.3575
    11.7965  15.2003  15.2165  18.2317  18.2317  18.2875  20.7019  20.8699
    22.7038  22.7038

          k = 0.0000 0.0000 0.1867 (  3707 PWs)   bands (ev):

   -67.5692 -37.2840 -33.6465 -33.6336 -33.6336 -13.5018 -13.3517 -13.3517
    12.3348  15.4667  15.4986  18.2011  18.2011  18.4055  20.3520  20.9797
    22.0489  22.0489

          k = 0.0000 0.0000 0.2801 (  3695 PWs)   bands (ev):

   -67.5677 -37.2751 -33.6567 -33.6316 -33.6316 -13.6350 -13.3443 -13.3443
    13.1621  15.8376  15.8872  18.1772  18.1772  18.5736  19.8188  21.0418
    21.3258  21.3258

          k = 0.0000 0.0000 0.3734 (  3675 PWs)   bands (ev):

   -67.5664 -37.2670 -33.6659 -33.6298 -33.6298 -13.7554 -13.3373 -13.3373
    14.1659  16.0385  16.4108  18.1772  18.1772  18.7454  19.1885  20.7328
    20.7328  20.8733

          k = 0.0000 0.0000 0.4668 (  3688 PWs)   bands (ev):

   -67.5655 -37.2622 -33.6714 -33.6287 -33.6287 -13.8262 -13.3332 -13.3332
    15.1462  15.8648  16.8852  18.1919  18.1919  18.6492  18.8577  20.3959
    20.3959  20.5553

          k = 0.0000 0.0934 0.0934 (  3733 PWs)   bands (ev):

   -67.5699 -37.2881 -33.6404 -33.6361 -33.6346 -13.4006 -13.3912 -13.3552
    11.9787  15.2918  15.3189  18.1375  18.2095  18.3976  20.6850  20.8365
    22.3924  22.4230

          k = 0.0000 0.0934 0.1867 (  3710 PWs)   bands (ev):

   -67.5688 -37.2806 -33.6479 -33.6359 -33.6330 -13.4986 -13.3885 -13.3492
    12.5032  15.5373  15.6079  18.0474  18.1559  18.5313  20.4158  20.9325
    21.7876  21.8189

          k = 0.0000 0.0934 0.2801 (  3700 PWs)   bands (ev):

   -67.5673 -37.2708 -33.6582 -33.6352 -33.6311 -13.6302 -13.3798 -13.3412
    13.3050  15.8797  15.9950  18.0008  18.0971  18.6274  19.9614  20.9187
    21.2322  21.2591

          k = 0.0000 0.0934 0.3734 (  3689 PWs)   bands (ev):

   -67.5659 -37.2619 -33.6677 -33.6344 -33.6293 -13.7492 -13.3717 -13.3339
    14.2681  16.0841  16.4607  18.0125  18.0433  18.6315  19.4470  20.4576
    20.8876  21.1039

          k = 0.0000 0.0934 0.4668 (  3666 PWs)   bands (ev):

   -67.5651 -37.2566 -33.6732 -33.6340 -33.6282 -13.8191 -13.3669 -13.3296
    15.1951  15.9038  16.8869  17.9640  18.0611  18.5634  19.0849  20.1413
    20.7408  20.9095

          k = 0.0000 0.1867 0.1867 (  3699 PWs)   bands (ev):

   -67.5676 -37.2714 -33.6533 -33.6407 -33.6316 -13.5014 -13.4751 -13.3422
    12.9830  15.7059  15.9274  17.8499  18.0546  18.6222  20.4781  20.8841
    21.2158  21.4524

          k = 0.0000 0.1867 0.2801 (  3685 PWs)   bands (ev):

   -67.5662 -37.2593 -33.6627 -33.6444 -33.6297 -13.6176 -13.4739 -13.3331
    13.6966  15.9116  16.3610  17.7143  17.9634  18.5377  20.2753  20.6237
    21.0656  21.2535

          k = 0.0000 0.1867 0.3734 (  3687 PWs)   bands (ev):

   -67.5649 -37.2482 -33.6723 -33.6468 -33.6280 -13.7325 -13.4630 -13.3247
    14.5109  16.0139  16.7923  17.6767  17.9446  18.2979  19.9330  20.2548
    21.2311  21.2812

          k = 0.0000 0.1867 0.4668 (  3682 PWs)   bands (ev):

   -67.5641 -37.2416 -33.6781 -33.6482 -33.6270 -13.8001 -13.4563 -13.3197
    15.2269  15.8603  17.0909  17.7400  18.0002  18.0455  19.7456  19.9900
    21.2838  21.3949

          k = 0.0000 0.2801 0.2801 (  3690 PWs)   bands (ev):

   -67.5648 -37.2442 -33.6701 -33.6551 -33.6280 -13.6137 -13.5829 -13.3224
    14.2266  15.9027  16.8761  17.4798  17.9367  18.2356  20.3798  20.5317
    20.9648  21.4510

          k = 0.0000 0.2801 0.3734 (  3682 PWs)   bands (ev):

   -67.5634 -37.2302 -33.6788 -33.6628 -33.6263 -13.7107 -13.5808 -13.3125
    14.7354  15.8107  17.3579  17.3809  17.8682  18.1454  20.1853  20.5129
    21.1700  21.7648

          k = 0.0000 0.2801 0.4668 (  3675 PWs)   bands (ev):

   -67.5626 -37.2219 -33.6847 -33.6667 -33.6253 -13.7752 -13.5719 -13.3066
    15.0822  15.6650  17.3756  17.5693  17.6599  18.5618  19.9264  20.4555
    21.4398  22.0462

          k = 0.0000 0.3734 0.3734 (  3682 PWs)   bands (ev):

   -67.5621 -37.2135 -33.6856 -33.6767 -33.6248 -13.6979 -13.6802 -13.3013
    14.8362  15.5983  17.1486  17.4773  18.0604  18.6251  20.3478  20.9120
    21.0007  22.2212

          k = 0.0000 0.3734 0.4668 (  3674 PWs)   bands (ev):

   -67.5613 -37.2036 -33.6909 -33.6836 -33.6239 -13.7522 -13.6766 -13.2947
    14.8547  15.4669  17.0919  17.2065  18.4790  19.3350  20.0961  20.9899
    21.2583  22.5638

          k = 0.0000 0.4668 0.4668 (  3670 PWs)   bands (ev):

   -67.5606 -37.1927 -33.6948 -33.6935 -33.6230 -13.7396 -13.7371 -13.2875
    14.7043  15.3514  16.9564  16.9950  19.2278  19.7864  20.5702  20.7765
    21.2829  22.8701

          k = 0.0934 0.0934 0.0934 (  3719 PWs)   bands (ev):

   -67.5695 -37.2851 -33.6398 -33.6398 -33.6339 -13.4018 -13.3890 -13.3890
    12.1572  15.4007  15.4007  18.1128  18.1128  18.4874  20.7454  20.7454
    21.9247  22.6811

          k = 0.0934 0.0934 0.1867 (  3703 PWs)   bands (ev):

   -67.5683 -37.2770 -33.6484 -33.6383 -33.6336 -13.4954 -13.3882 -13.3832
    12.6703  15.6388  15.6854  17.9889  18.0479  18.5832  20.4833  20.8888
    21.3943  22.0243

          k = 0.0934 0.0934 0.2801 (  3697 PWs)   bands (ev):

   -67.5669 -37.2665 -33.6593 -33.6363 -33.6336 -13.6255 -13.3778 -13.3756
    13.4504  16.0090  16.0172  17.9269  17.9601  18.5780  20.0889  20.8489
    21.1862  21.3140

          k = 0.0934 0.0934 0.3734 (  3683 PWs)   bands (ev):

   -67.5655 -37.2569 -33.6691 -33.6344 -33.6337 -13.7432 -13.3685 -13.3681
    14.3786  16.1820  16.4577  17.8510  17.9683  18.4764  19.6520  20.5539
    20.7486  21.3147

          k = 0.0934 0.0934 0.4668 (  3679 PWs)   bands (ev):

   -67.5647 -37.2512 -33.6748 -33.6337 -33.6333 -13.8124 -13.3643 -13.3622
    15.2612  15.9724  16.8514  17.7127  18.1075  18.3711  19.3426  20.2608
    20.4376  21.4433

          k = 0.0934 0.1867 0.1867 (  3697 PWs)   bands (ev):

   -67.5672 -37.2674 -33.6526 -33.6429 -33.6340 -13.4970 -13.4728 -13.3781
    13.1454  15.8256  15.9820  17.8094  17.9291  18.5456  20.5583  20.8513
    21.0832  21.7058

          k = 0.0934 0.1867 0.2801 (  3697 PWs)   bands (ev):

   -67.5658 -37.2549 -33.6627 -33.6452 -33.6337 -13.6131 -13.4707 -13.3683
    13.8490  16.0449  16.3826  17.6673  17.8280  18.3395  20.3802  20.7623
    21.1002  21.3265

          k = 0.0934 0.1867 0.3734 (  3684 PWs)   bands (ev):

   -67.5645 -37.2433 -33.6730 -33.6467 -33.6329 -13.7272 -13.4598 -13.3592
    14.6446  16.1576  16.7373  17.5910  17.8315  18.1293  20.1043  20.3892
    20.9573  21.6400

          k = 0.0934 0.1867 0.4668 (  3684 PWs)   bands (ev):

   -67.5637 -37.2365 -33.6792 -33.6477 -33.6322 -13.7944 -13.4531 -13.3537
    15.3371  15.9838  16.9714  17.5307  17.9340  18.0921  19.9138  20.0742
    20.7385  22.0888

          k = 0.0934 0.2801 0.2801 (  3689 PWs)   bands (ev):

   -67.5643 -37.2396 -33.6694 -33.6559 -33.6326 -13.6084 -13.5807 -13.3573
    14.3866  16.0416  16.8857  17.4391  17.7824  18.0003  20.5118  20.7027
    20.9464  21.6113

          k = 0.0934 0.2801 0.3734 (  3675 PWs)   bands (ev):

   -67.5630 -37.2255 -33.6786 -33.6629 -33.6313 -13.7064 -13.5777 -13.3472
    14.8920  15.9505  17.2794  17.3406  17.7485  17.9851  20.2781  20.6127
    21.0319  22.0806

          k = 0.0934 0.2801 0.4668 (  3684 PWs)   bands (ev):

   -67.5622 -37.2171 -33.6850 -33.6661 -33.6305 -13.7708 -13.5691 -13.3411
    15.2221  15.8041  17.2827  17.3558  17.7325  18.4488  19.9709  20.5710
    20.9660  22.6194

          k = 0.0934 0.3734 0.3734 (  3692 PWs)   bands (ev):

   -67.5617 -37.2091 -33.6848 -33.6768 -33.6299 -13.6939 -13.6779 -13.3361
    14.9935  15.7378  17.1164  17.3799  18.0156  18.4302  20.2949  20.8648
    21.0221  22.5811

          k = 0.0934 0.3734 0.4668 (  3688 PWs)   bands (ev):

   -67.5609 -37.1992 -33.6905 -33.6830 -33.6290 -13.7491 -13.6741 -13.3295
    15.0018  15.6093  17.0583  17.1521  18.4027  19.1390  20.0383  20.8324
    21.1288  22.8268

          k = 0.0934 0.4668 0.4668 (  3664 PWs)   bands (ev):

   -67.5602 -37.1885 -33.6940 -33.6929 -33.6280 -13.7371 -13.7349 -13.3226
    14.8527  15.4948  16.9340  16.9678  19.1715  19.6539  20.2522  20.3838
    21.3664  23.0723

          k = 0.1867 0.1867 0.1867 (  3686 PWs)   bands (ev):

   -67.5661 -37.2569 -33.6509 -33.6509 -33.6384 -13.4919 -13.4668 -13.4668
    13.6039  16.1371  16.1371  17.7019  17.7019  18.2548  20.7543  20.7543
    21.1547  21.9787

          k = 0.1867 0.1867 0.2801 (  3694 PWs)   bands (ev):

   -67.5647 -37.2430 -33.6633 -33.6488 -33.6421 -13.6011 -13.4652 -13.4589
    14.2687  16.3650  16.4729  17.5527  17.5594  17.9007  20.6066  20.8610
    21.2966  21.5028

          k = 0.1867 0.1867 0.3734 (  3687 PWs)   bands (ev):

   -67.5634 -37.2302 -33.6750 -33.6467 -33.6452 -13.7132 -13.4516 -13.4504
    14.9848  16.5001  16.6176  17.4125  17.6060  17.8187  20.4494  20.5933
    20.7668  22.1366

          k = 0.1867 0.1867 0.4668 (  3695 PWs)   bands (ev):

   -67.5626 -37.2227 -33.6820 -33.6470 -33.6455 -13.7792 -13.4473 -13.4413
    15.5641  16.2019  16.8153  17.2922  17.7473  18.0486  20.1511  20.3545
    20.4699  22.5285

          k = 0.1867 0.2801 0.2801 (  3694 PWs)   bands (ev):

   -67.5633 -37.2274 -33.6676 -33.6584 -33.6448 -13.5943 -13.5746 -13.4503
    14.8318  16.4194  16.9057  17.3362  17.4351  17.5267  20.6524  20.8644
    21.1737  22.0461

          k = 0.1867 0.2801 0.3734 (  3687 PWs)   bands (ev):

   -67.5620 -37.2130 -33.6782 -33.6628 -33.6447 -13.6949 -13.5695 -13.4394
    15.3258  16.3152  17.0524  17.2206  17.5281  17.6471  20.4037  20.6804
    21.0519  22.3539

          k = 0.1867 0.2801 0.4668 (  3685 PWs)   bands (ev):

   -67.5612 -37.2044 -33.6859 -33.6646 -33.6443 -13.7592 -13.5615 -13.4327
    15.5978  16.1414  17.0039  17.1727  17.6446  18.1833  20.0274  20.4918
    20.9469  22.6068

          k = 0.1867 0.3734 0.3734 (  3688 PWs)   bands (ev):

   -67.5607 -37.1971 -33.6828 -33.6769 -33.6435 -13.6832 -13.6719 -13.4286
    15.4415  16.0998  17.0372  17.1742  17.8746  17.9441  20.2597  20.5394
    21.3495  22.5344

          k = 0.1867 0.3734 0.4668 (  3677 PWs)   bands (ev):

   -67.5599 -37.1876 -33.6895 -33.6814 -33.6426 -13.7409 -13.6675 -13.4222
    15.4182  15.9791  16.9784  17.0384  18.1442  18.6407  19.9663  20.3567
    21.4366  22.8080

          k = 0.1867 0.4668 0.4668 (  3677 PWs)   bands (ev):

   -67.5591 -37.1775 -33.6919 -33.6911 -33.6416 -13.7306 -13.7291 -13.4159
    15.2774  15.8757  16.8824  16.9082  18.8903  19.0425  19.8528  20.0372
    21.6535  23.1312

          k = 0.2801 0.2801 0.2801 (  3674 PWs)   bands (ev):

   -67.5619 -37.2113 -33.6651 -33.6651 -33.6572 -13.5797 -13.5665 -13.5665
    15.4336  16.9143  16.9143  16.9944  17.2176  17.2176  20.6709  20.6709
    21.6966  21.6966

          k = 0.2801 0.2801 0.3734 (  3682 PWs)   bands (ev):

   -67.5605 -37.1965 -33.6784 -33.6629 -33.6615 -13.6801 -13.5592 -13.5579
    15.8803  16.5986  16.8961  17.1299  17.2424  17.4814  20.4016  20.4340
    21.5234  22.2547

          k = 0.2801 0.2801 0.4668 (  3689 PWs)   bands (ev):

   -67.5598 -37.1877 -33.6871 -33.6633 -33.6616 -13.7440 -13.5548 -13.5478
    15.9871  16.3883  16.8708  17.0884  17.4859  17.9905  19.9645  20.2898
    21.4624  22.6419

          k = 0.2801 0.3734 0.3734 (  3684 PWs)   bands (ev):

   -67.5593 -37.1813 -33.6802 -33.6771 -33.6612 -13.6691 -13.6641 -13.5482
    16.0910  16.4775  16.9540  17.0892  17.3916  17.6409  20.2070  20.2207
    21.8663  22.4768

          k = 0.2801 0.3734 0.4668 (  3688 PWs)   bands (ev):

   -67.5585 -37.1722 -33.6883 -33.6791 -33.6605 -13.7301 -13.6587 -13.5419
    16.0048  16.3905  16.9104  17.0030  17.7256  18.1100  19.8488  20.1146
    21.9371  22.8454

          k = 0.2801 0.4668 0.4668 (  3675 PWs)   bands (ev):

   -67.5577 -37.1630 -33.6892 -33.6887 -33.6593 -13.7221 -13.7214 -13.5364
    15.9075  16.3526  16.8423  16.8804  18.3018  18.3179  19.6525  19.9445
    22.1401  23.1726

          k = 0.3734 0.3734 0.3734 (  3683 PWs)   bands (ev):

   -67.5580 -37.1667 -33.6778 -33.6778 -33.6770 -13.6568 -13.6568 -13.6558
    16.4225  16.9167  16.9167  16.9616  17.3639  17.3639  20.0189  20.0189
    22.4827  22.4827

          k = 0.3734 0.3734 0.4668 (  3681 PWs)   bands (ev):

   -67.5572 -37.1580 -33.6872 -33.6774 -33.6764 -13.7202 -13.6525 -13.6484
    16.4240  16.6436  16.9651  17.1217  17.4064  17.7563  19.7371  19.9307
    22.4970  22.9478

          k = 0.3734 0.4668 0.4668 (  3682 PWs)   bands (ev):

   -67.5565 -37.1496 -33.6867 -33.6866 -33.6756 -13.7143 -13.7143 -13.6456
    16.5443  16.7472  16.8643  17.0083  17.6943  17.7394  19.6035  19.7861
    22.7484  23.2060

          k = 0.4668 0.4668 0.4668 (  3680 PWs)   bands (ev):

   -67.5557 -37.1416 -33.6854 -33.6852 -33.6852 -13.7101 -13.7101 -13.7093
    16.8144  16.9903  16.9903  17.3042  17.3042  17.3626  19.5920  19.5920
    23.2251  23.2251

     the Fermi energy is    19.3458 ev

!    total energy              =    -448.57548198 Ry
     estimated scf accuracy    <          5.1E-13 Ry
     smearing contrib. (-TS)   =      -0.00004040 Ry
     internal energy E=F+TS    =    -448.57544158 Ry

     The total energy is F=E-TS. E is the sum of the following terms:
     one-electron contribution =    -140.59180228 Ry
     hartree contribution      =      88.03812876 Ry
     xc contribution           =     -53.03677005 Ry
     ewald contribution        =    -266.82949693 Ry
     one-center paw contrib.   =     -76.15550109 Ry

     convergence has been achieved in  36 iterations

     negative rho (up, down):  9.696E-04 0.000E+00

     Forces acting on atoms (cartesian axes, Ry/au):

     atom    1 type  1   force =     0.00000000    0.00000000    0.00000000
     atom    2 type  2   force =     0.00000000    0.00000000    0.00000000

     Total force =     0.000000     Total SCF correction =     0.000000


     Computing stress (Cartesian axis) and pressure


     negative rho (up, down):  9.696E-04 0.000E+00
          total   stress  (Ry/bohr**3)                   (kbar)     P=      224.77
   0.00152795   0.00000000   0.00000000          224.77        0.00        0.00
   0.00000000   0.00152795   0.00000000            0.00      224.77        0.00
   0.00000000   0.00000000   0.00152795            0.00        0.00      224.77


     Writing all to output data dir ./TiFe.save/ :
     XML data file, charge density, pseudopotentials, collected wavefunctions

     init_run     :      2.24s CPU      2.30s WALL (       2 calls)
     electrons    :    102.10s CPU    107.07s WALL (       5 calls)
     update_pot   :      0.24s CPU      0.26s WALL (       3 calls)
     forces       :      1.14s CPU      1.22s WALL (       5 calls)
     stress       :      6.73s CPU      6.94s WALL (       5 calls)

     Called by init_run:
     wfcinit      :      0.58s CPU      0.59s WALL (       2 calls)
     potinit      :      0.44s CPU      0.45s WALL (       2 calls)
     hinit0       :      0.90s CPU      0.90s WALL (       2 calls)

     Called by electrons:
     c_bands      :     61.64s CPU     63.17s WALL (     102 calls)
     sum_band     :     21.82s CPU     23.68s WALL (     102 calls)
     v_of_rho     :      2.09s CPU      2.23s WALL (     106 calls)
     newd         :     11.65s CPU     13.00s WALL (     106 calls)
     PAW_pot      :      5.49s CPU      5.56s WALL (     109 calls)
     mix_rho      :      0.23s CPU      0.25s WALL (     102 calls)

     Called by c_bands:
     init_us_2    :      1.68s CPU      1.74s WALL (   12264 calls)
     cegterg      :     58.73s CPU     60.15s WALL (    5712 calls)

     Called by *egterg:
     cdiaghg      :      6.92s CPU      7.08s WALL (   22255 calls)
     h_psi        :     45.02s CPU     46.15s WALL (   22591 calls)
     s_psi        :      1.16s CPU      1.19s WALL (   22591 calls)
     g_psi        :      0.27s CPU      0.28s WALL (   16767 calls)

     Called by h_psi:
     h_psi:calbec :      1.65s CPU      1.70s WALL (   22591 calls)
     vloc_psi     :     41.96s CPU     43.02s WALL (   22591 calls)
     add_vuspsi   :      1.19s CPU      1.23s WALL (   22591 calls)

     General routines
     calbec       :      2.60s CPU      2.67s WALL (   33231 calls)
     fft          :      1.83s CPU      2.04s WALL (    1497 calls)
     ffts         :      0.30s CPU      0.31s WALL (     208 calls)
     fftw         :     37.88s CPU     38.79s WALL (  646596 calls)
     interpolate  :      0.38s CPU      0.41s WALL (     106 calls)

     Parallel routines

     PWSCF        :    113.32s CPU    118.84s WALL


   This run was terminated on:  15:42:45  25Oct2025            

=------------------------------------------------------------------------------=
   JOB DONE.
=------------------------------------------------------------------------------=
