
     Program PWSCF v.7.4 starts on 25Oct2025 at 15:46:47 

     This program is part of the open-source Quantum ESPRESSO suite
     for quantum simulation of materials; please cite
         "P. Giannozzi et al., J. Phys.:Condens. Matter 21 395502 (2009);
         "P. Giannozzi et al., J. Phys.:Condens. Matter 29 465901 (2017);
         "P. Giannozzi et al., J. Chem. Phys. 152 154105 (2020);
          URL http://www.quantum-espresso.org", 
     in publications or presentations arising from this work. More details at
     http://www.quantum-espresso.org/quote

     Parallel version (MPI & OpenMP), running on       8 processor cores
     Number of MPI processes:                 8
     Threads/MPI process:                     1

     MPI processes distributed on     1 nodes
     217090 MiB available memory on the printing compute node when the environment starts

     Reading input from TiFe_relaxed11.in

     Current dimensions of program PWSCF are:
     Max number of different atomic species (ntypx) = 10
     Max number of k-points (npk) =  40000
     Max angular momentum in pseudopotentials (lmaxx) =  4
     file Fe.pbe-spn-kjpaw_psl.0.2.1.UPF: wavefunction(s)  3D renormalized

     IMPORTANT: XC functional enforced from input :
     Exchange-correlation= PBE
                           (   1   4   3   4   0   0   0)
     Any further DFT definition will be discarded
     Please, verify this is what you really want

     Message from routine setup:
     using ibrav=0 with symmetry is DISCOURAGED, use correct ibrav instead

     R & G space division:  proc/nbgrp/npool/nimage =       8
     Subspace diagonalization in iterative solution of the eigenvalue problem:
     a serial algorithm will be used


     Parallelization info
     --------------------
     sticks:   dense  smooth     PW     G-vecs:    dense   smooth      PW
     Min         532     151     43                26154     3989     617
     Max         533     152     44                26155     3993     620
     Sum        4257    1209    349               209233    31919    4945

     Using Slab Decomposition



     bravais-lattice index     =            0
     lattice parameter (alat)  =       5.5533  a.u.
     unit-cell volume          =     171.2590 (a.u.)^3
     number of atoms/cell      =            2
     number of atomic types    =            2
     number of electrons       =        28.00
     number of Kohn-Sham states=           18
     kinetic-energy cutoff     =     124.0000  Ry
     charge density cutoff     =    1736.0000  Ry
     scf convergence threshold =      1.0E-08
     mixing beta               =       0.7000
     number of iterations used =            8  plain     mixing
     energy convergence thresh.=      1.0E-04
     force convergence thresh. =      1.0E-03
     press convergence thresh. =      5.0E-01
     Exchange-correlation= PBE
                           (   1   4   3   4   0   0   0)
     nstep                     =           50


     celldm(1)=   5.553300  celldm(2)=   0.000000  celldm(3)=   0.000000
     celldm(4)=   0.000000  celldm(5)=   0.000000  celldm(6)=   0.000000

     crystal axes: (cart. coord. in units of alat)
               a(1) = (   1.000000   0.000000   0.000000 )  
               a(2) = (   0.000000   1.000000   0.000000 )  
               a(3) = (   0.000000   0.000000   1.000000 )  

     reciprocal axes: (cart. coord. in units 2 pi/alat)
               b(1) = (  1.000000  0.000000  0.000000 )  
               b(2) = (  0.000000  1.000000  0.000000 )  
               b(3) = (  0.000000  0.000000  1.000000 )  


     PseudoPot. # 1 for Fe read from file:
     ../../pseudos/Fe.pbe-spn-kjpaw_psl.0.2.1.UPF
     MD5 check sum: e86618425769142926afa95317d90200
     Pseudo is Projector augmented-wave + core cor, Zval = 16.0
     Generated using "atomic" code by A. Dal Corso  v.5.0.99 svn rev. 10869
     Shape of augmentation charge: PSQ
     Using radial grid of 1191 points,  6 beta functions with: 
                l(1) =   0
                l(2) =   0
                l(3) =   1
                l(4) =   1
                l(5) =   2
                l(6) =   2
     Q(r) pseudized with 0 coefficients 


     PseudoPot. # 2 for Ti read from file:
     ../../pseudos/ti_pbe_v1.4.uspp.F.UPF
     MD5 check sum: 88a00a6731bd790ddea75d31a80cb452
     Pseudo is Ultrasoft + core correction, Zval = 12.0
     Generated by new atomic code, or converted to UPF format
     Using radial grid of  851 points,  6 beta functions with: 
                l(1) =   0
                l(2) =   0
                l(3) =   1
                l(4) =   1
                l(5) =   2
                l(6) =   2
     Q(r) pseudized with  6 coefficients,  rinner =    1.000   1.000   1.000
                                                       1.000   1.000

     atomic species   valence    mass     pseudopotential
     Fe               16.00    55.84500     Fe( 1.00)
     Ti               12.00    47.86700     Ti( 1.00)

     48 Sym. Ops., with inversion, found



   Cartesian axes

     site n.     atom                  positions (alat units)
         1        Fe     tau(   1) = (   0.5000000   0.5000000   0.5000000  )
         2        Ti     tau(   2) = (   0.0000000   0.0000000   0.0000000  )

     number of k points=    56  Marzari-Vanderbilt smearing, width (Ry)=  0.0050
                       cart. coord. in units 2pi/alat
        k(    1) = (   0.0000000   0.0000000   0.0000000), wk =   0.0015026
        k(    2) = (   0.0000000   0.0000000   0.0909091), wk =   0.0090158
        k(    3) = (   0.0000000   0.0000000   0.1818182), wk =   0.0090158
        k(    4) = (   0.0000000   0.0000000   0.2727273), wk =   0.0090158
        k(    5) = (   0.0000000   0.0000000   0.3636364), wk =   0.0090158
        k(    6) = (   0.0000000   0.0000000   0.4545455), wk =   0.0090158
        k(    7) = (   0.0000000   0.0909091   0.0909091), wk =   0.0180316
        k(    8) = (   0.0000000   0.0909091   0.1818182), wk =   0.0360631
        k(    9) = (   0.0000000   0.0909091   0.2727273), wk =   0.0360631
        k(   10) = (   0.0000000   0.0909091   0.3636364), wk =   0.0360631
        k(   11) = (   0.0000000   0.0909091   0.4545455), wk =   0.0360631
        k(   12) = (   0.0000000   0.1818182   0.1818182), wk =   0.0180316
        k(   13) = (   0.0000000   0.1818182   0.2727273), wk =   0.0360631
        k(   14) = (   0.0000000   0.1818182   0.3636364), wk =   0.0360631
        k(   15) = (   0.0000000   0.1818182   0.4545455), wk =   0.0360631
        k(   16) = (   0.0000000   0.2727273   0.2727273), wk =   0.0180316
        k(   17) = (   0.0000000   0.2727273   0.3636364), wk =   0.0360631
        k(   18) = (   0.0000000   0.2727273   0.4545455), wk =   0.0360631
        k(   19) = (   0.0000000   0.3636364   0.3636364), wk =   0.0180316
        k(   20) = (   0.0000000   0.3636364   0.4545455), wk =   0.0360631
        k(   21) = (   0.0000000   0.4545455   0.4545455), wk =   0.0180316
        k(   22) = (   0.0909091   0.0909091   0.0909091), wk =   0.0120210
        k(   23) = (   0.0909091   0.0909091   0.1818182), wk =   0.0360631
        k(   24) = (   0.0909091   0.0909091   0.2727273), wk =   0.0360631
        k(   25) = (   0.0909091   0.0909091   0.3636364), wk =   0.0360631
        k(   26) = (   0.0909091   0.0909091   0.4545455), wk =   0.0360631
        k(   27) = (   0.0909091   0.1818182   0.1818182), wk =   0.0360631
        k(   28) = (   0.0909091   0.1818182   0.2727273), wk =   0.0721262
        k(   29) = (   0.0909091   0.1818182   0.3636364), wk =   0.0721262
        k(   30) = (   0.0909091   0.1818182   0.4545455), wk =   0.0721262
        k(   31) = (   0.0909091   0.2727273   0.2727273), wk =   0.0360631
        k(   32) = (   0.0909091   0.2727273   0.3636364), wk =   0.0721262
        k(   33) = (   0.0909091   0.2727273   0.4545455), wk =   0.0721262
        k(   34) = (   0.0909091   0.3636364   0.3636364), wk =   0.0360631
        k(   35) = (   0.0909091   0.3636364   0.4545455), wk =   0.0721262
        k(   36) = (   0.0909091   0.4545455   0.4545455), wk =   0.0360631
        k(   37) = (   0.1818182   0.1818182   0.1818182), wk =   0.0120210
        k(   38) = (   0.1818182   0.1818182   0.2727273), wk =   0.0360631
        k(   39) = (   0.1818182   0.1818182   0.3636364), wk =   0.0360631
        k(   40) = (   0.1818182   0.1818182   0.4545455), wk =   0.0360631
        k(   41) = (   0.1818182   0.2727273   0.2727273), wk =   0.0360631
        k(   42) = (   0.1818182   0.2727273   0.3636364), wk =   0.0721262
        k(   43) = (   0.1818182   0.2727273   0.4545455), wk =   0.0721262
        k(   44) = (   0.1818182   0.3636364   0.3636364), wk =   0.0360631
        k(   45) = (   0.1818182   0.3636364   0.4545455), wk =   0.0721262
        k(   46) = (   0.1818182   0.4545455   0.4545455), wk =   0.0360631
        k(   47) = (   0.2727273   0.2727273   0.2727273), wk =   0.0120210
        k(   48) = (   0.2727273   0.2727273   0.3636364), wk =   0.0360631
        k(   49) = (   0.2727273   0.2727273   0.4545455), wk =   0.0360631
        k(   50) = (   0.2727273   0.3636364   0.3636364), wk =   0.0360631
        k(   51) = (   0.2727273   0.3636364   0.4545455), wk =   0.0721262
        k(   52) = (   0.2727273   0.4545455   0.4545455), wk =   0.0360631
        k(   53) = (   0.3636364   0.3636364   0.3636364), wk =   0.0120210
        k(   54) = (   0.3636364   0.3636364   0.4545455), wk =   0.0360631
        k(   55) = (   0.3636364   0.4545455   0.4545455), wk =   0.0360631
        k(   56) = (   0.4545455   0.4545455   0.4545455), wk =   0.0120210

     Dense  grid:   209233 G-vectors     FFT dimensions: (  75,  75,  75)

     Smooth grid:    31919 G-vectors     FFT dimensions: (  40,  40,  40)

     Estimated max dynamical RAM per process >     117.03 MB

     Estimated total dynamical RAM >     936.25 MB

     Check: negative core charge=   -0.000002

     Initial potential from superposition of free atoms

     starting charge      26.9995, renormalised to      28.0000

     negative rho (up, down):  1.347E-03 0.000E+00
     Starting wfcs are   23 randomized atomic wfcs
     Checking if some PAW data can be deallocated... 

     total cpu time spent up to now is        1.4 secs

     per-process dynamical memory:   142.7 Mb

     Self-consistent Calculation

     iteration #  1     ecut=   124.00 Ry     beta= 0.70
     Davidson diagonalization with overlap
     ethr =  1.00E-02,  avg # of iterations =  2.1

     negative rho (up, down):  7.937E-05 0.000E+00

     total cpu time spent up to now is        2.4 secs

     total energy              =    -434.89047275 Ry
     estimated scf accuracy    <      17.46535633 Ry

     iteration #  2     ecut=   124.00 Ry     beta= 0.70
     Davidson diagonalization with overlap
     ethr =  1.00E-02,  avg # of iterations =  6.0

     negative rho (up, down):  2.353E-05 0.000E+00

     total cpu time spent up to now is        4.0 secs

     total energy              =    -448.51249463 Ry
     estimated scf accuracy    <      66.10195194 Ry

     iteration #  3     ecut=   124.00 Ry     beta= 0.70
     Davidson diagonalization with overlap
     ethr =  1.00E-02,  avg # of iterations =  3.1

     negative rho (up, down):  2.377E-04 0.000E+00

     total cpu time spent up to now is        5.2 secs

     total energy              =    -448.59203340 Ry
     estimated scf accuracy    <      16.77106202 Ry

     iteration #  4     ecut=   124.00 Ry     beta= 0.70
     Davidson diagonalization with overlap
     ethr =  1.00E-02,  avg # of iterations =  2.2

     negative rho (up, down):  2.766E-04 0.000E+00

     total cpu time spent up to now is        6.2 secs

     total energy              =    -449.11252552 Ry
     estimated scf accuracy    <       4.68111793 Ry

     iteration #  5     ecut=   124.00 Ry     beta= 0.70
     Davidson diagonalization with overlap
     ethr =  1.00E-02,  avg # of iterations =  1.0

     negative rho (up, down):  3.285E-04 0.000E+00

     total cpu time spent up to now is        7.0 secs

     total energy              =    -449.11683000 Ry
     estimated scf accuracy    <       4.27451567 Ry

     iteration #  6     ecut=   124.00 Ry     beta= 0.70
     Davidson diagonalization with overlap
     ethr =  1.00E-02,  avg # of iterations =  1.0

     negative rho (up, down):  1.118E-03 0.000E+00

     total cpu time spent up to now is        7.9 secs

     total energy              =    -447.89068457 Ry
     estimated scf accuracy    <       4.50163493 Ry

     iteration #  7     ecut=   124.00 Ry     beta= 0.70
     Davidson diagonalization with overlap
     ethr =  1.00E-02,  avg # of iterations =  3.4

     negative rho (up, down):  1.015E-03 0.000E+00

     total cpu time spent up to now is        8.9 secs

     total energy              =    -448.58840447 Ry
     estimated scf accuracy    <       3.89651472 Ry

     iteration #  8     ecut=   124.00 Ry     beta= 0.70
     Davidson diagonalization with overlap
     ethr =  1.00E-02,  avg # of iterations =  1.0

     negative rho (up, down):  7.976E-04 0.000E+00

     total cpu time spent up to now is        9.8 secs

     total energy              =    -448.43997417 Ry
     estimated scf accuracy    <       1.27715295 Ry

     iteration #  9     ecut=   124.00 Ry     beta= 0.70
     Davidson diagonalization with overlap
     ethr =  4.56E-03,  avg # of iterations =  1.9

     negative rho (up, down):  7.977E-04 0.000E+00

     total cpu time spent up to now is       10.8 secs

     total energy              =    -448.60539805 Ry
     estimated scf accuracy    <       0.26863249 Ry

     iteration # 10     ecut=   124.00 Ry     beta= 0.70
     Davidson diagonalization with overlap
     ethr =  9.59E-04,  avg # of iterations =  1.3

     negative rho (up, down):  8.075E-04 0.000E+00

     total cpu time spent up to now is       11.7 secs

     total energy              =    -448.61289738 Ry
     estimated scf accuracy    <       0.28159432 Ry

     iteration # 11     ecut=   124.00 Ry     beta= 0.70
     Davidson diagonalization with overlap
     ethr =  9.59E-04,  avg # of iterations =  1.0

     negative rho (up, down):  7.617E-04 0.000E+00

     total cpu time spent up to now is       12.6 secs

     total energy              =    -448.67957078 Ry
     estimated scf accuracy    <       0.34549008 Ry

     iteration # 12     ecut=   124.00 Ry     beta= 0.70
     Davidson diagonalization with overlap
     ethr =  9.59E-04,  avg # of iterations =  1.8

     negative rho (up, down):  7.932E-04 0.000E+00

     total cpu time spent up to now is       13.5 secs

     total energy              =    -448.62277485 Ry
     estimated scf accuracy    <       1.28404054 Ry

     iteration # 13     ecut=   124.00 Ry     beta= 0.70
     Davidson diagonalization with overlap
     ethr =  9.59E-04,  avg # of iterations =  1.2

     negative rho (up, down):  9.274E-04 0.000E+00

     total cpu time spent up to now is       14.4 secs

     total energy              =    -448.63537755 Ry
     estimated scf accuracy    <       0.58154385 Ry

     iteration # 14     ecut=   124.00 Ry     beta= 0.70
     Davidson diagonalization with overlap
     ethr =  9.59E-04,  avg # of iterations =  1.0

     negative rho (up, down):  1.025E-03 0.000E+00

     total cpu time spent up to now is       15.2 secs

     total energy              =    -448.61055070 Ry
     estimated scf accuracy    <       0.50368914 Ry

     iteration # 15     ecut=   124.00 Ry     beta= 0.70
     Davidson diagonalization with overlap
     ethr =  9.59E-04,  avg # of iterations =  1.0

     negative rho (up, down):  1.032E-03 0.000E+00

     total cpu time spent up to now is       16.1 secs

     total energy              =    -448.61143942 Ry
     estimated scf accuracy    <       0.31963620 Ry

     iteration # 16     ecut=   124.00 Ry     beta= 0.70
     Davidson diagonalization with overlap
     ethr =  9.59E-04,  avg # of iterations =  1.0

     negative rho (up, down):  1.077E-03 0.000E+00

     total cpu time spent up to now is       17.0 secs

     total energy              =    -448.59313187 Ry
     estimated scf accuracy    <       0.28283030 Ry

     iteration # 17     ecut=   124.00 Ry     beta= 0.70
     Davidson diagonalization with overlap
     ethr =  9.59E-04,  avg # of iterations =  1.0

     negative rho (up, down):  1.074E-03 0.000E+00

     total cpu time spent up to now is       17.9 secs

     total energy              =    -448.60188466 Ry
     estimated scf accuracy    <       0.07727335 Ry

     iteration # 18     ecut=   124.00 Ry     beta= 0.70
     Davidson diagonalization with overlap
     ethr =  2.76E-04,  avg # of iterations =  1.6

     negative rho (up, down):  9.925E-04 0.000E+00

     total cpu time spent up to now is       18.8 secs

     total energy              =    -448.58361170 Ry
     estimated scf accuracy    <       0.14906514 Ry

     iteration # 19     ecut=   124.00 Ry     beta= 0.70
     Davidson diagonalization with overlap
     ethr =  2.76E-04,  avg # of iterations =  1.1

     negative rho (up, down):  9.436E-04 0.000E+00

     total cpu time spent up to now is       19.7 secs

     total energy              =    -448.59412595 Ry
     estimated scf accuracy    <       0.04848593 Ry

     iteration # 20     ecut=   124.00 Ry     beta= 0.70
     Davidson diagonalization with overlap
     ethr =  1.73E-04,  avg # of iterations =  1.1

     negative rho (up, down):  1.023E-03 0.000E+00

     total cpu time spent up to now is       20.6 secs

     total energy              =    -448.57755582 Ry
     estimated scf accuracy    <       0.17402911 Ry

     iteration # 21     ecut=   124.00 Ry     beta= 0.70
     Davidson diagonalization with overlap
     ethr =  1.73E-04,  avg # of iterations =  2.1

     negative rho (up, down):  1.012E-03 0.000E+00

     total cpu time spent up to now is       21.5 secs

     total energy              =    -448.58650556 Ry
     estimated scf accuracy    <       0.00384582 Ry

     iteration # 22     ecut=   124.00 Ry     beta= 0.70
     Davidson diagonalization with overlap
     ethr =  1.37E-05,  avg # of iterations =  4.6

     negative rho (up, down):  1.004E-03 0.000E+00

     total cpu time spent up to now is       22.6 secs

     total energy              =    -448.58691254 Ry
     estimated scf accuracy    <       0.00198474 Ry

     iteration # 23     ecut=   124.00 Ry     beta= 0.70
     Davidson diagonalization with overlap
     ethr =  7.09E-06,  avg # of iterations =  1.5

     negative rho (up, down):  1.006E-03 0.000E+00

     total cpu time spent up to now is       23.5 secs

     total energy              =    -448.58700273 Ry
     estimated scf accuracy    <       0.00176934 Ry

     iteration # 24     ecut=   124.00 Ry     beta= 0.70
     Davidson diagonalization with overlap
     ethr =  6.32E-06,  avg # of iterations =  1.0

     negative rho (up, down):  9.532E-04 0.000E+00

     total cpu time spent up to now is       24.3 secs

     total energy              =    -448.58622429 Ry
     estimated scf accuracy    <       0.00189336 Ry

     iteration # 25     ecut=   124.00 Ry     beta= 0.70
     Davidson diagonalization with overlap
     ethr =  6.32E-06,  avg # of iterations =  2.5

     negative rho (up, down):  9.519E-04 0.000E+00

     total cpu time spent up to now is       25.4 secs

     total energy              =    -448.58664002 Ry
     estimated scf accuracy    <       0.00120780 Ry

     iteration # 26     ecut=   124.00 Ry     beta= 0.70
     Davidson diagonalization with overlap
     ethr =  4.31E-06,  avg # of iterations =  1.0

     negative rho (up, down):  9.350E-04 0.000E+00

     total cpu time spent up to now is       26.3 secs

     total energy              =    -448.58685540 Ry
     estimated scf accuracy    <       0.00115496 Ry

     iteration # 27     ecut=   124.00 Ry     beta= 0.70
     Davidson diagonalization with overlap
     ethr =  4.12E-06,  avg # of iterations =  2.0

     negative rho (up, down):  9.665E-04 0.000E+00

     total cpu time spent up to now is       27.2 secs

     total energy              =    -448.58628944 Ry
     estimated scf accuracy    <       0.00358732 Ry

     iteration # 28     ecut=   124.00 Ry     beta= 0.70
     Davidson diagonalization with overlap
     ethr =  4.12E-06,  avg # of iterations =  2.0

     negative rho (up, down):  9.722E-04 0.000E+00

     total cpu time spent up to now is       28.2 secs

     total energy              =    -448.58652078 Ry
     estimated scf accuracy    <       0.00004727 Ry

     iteration # 29     ecut=   124.00 Ry     beta= 0.70
     Davidson diagonalization with overlap
     ethr =  1.69E-07,  avg # of iterations =  4.7

     negative rho (up, down):  9.640E-04 0.000E+00

     total cpu time spent up to now is       29.3 secs

     total energy              =    -448.58653251 Ry
     estimated scf accuracy    <       0.00024121 Ry

     iteration # 30     ecut=   124.00 Ry     beta= 0.70
     Davidson diagonalization with overlap
     ethr =  1.69E-07,  avg # of iterations =  3.8

     negative rho (up, down):  9.643E-04 0.000E+00

     total cpu time spent up to now is       30.4 secs

     total energy              =    -448.58655217 Ry
     estimated scf accuracy    <       0.00000018 Ry

     iteration # 31     ecut=   124.00 Ry     beta= 0.70
     Davidson diagonalization with overlap
     ethr =  6.52E-10,  avg # of iterations =  5.9

     negative rho (up, down):  9.640E-04 0.000E+00

     total cpu time spent up to now is       31.8 secs

     total energy              =    -448.58655245 Ry
     estimated scf accuracy    <       0.00000124 Ry

     iteration # 32     ecut=   124.00 Ry     beta= 0.70
     Davidson diagonalization with overlap
     ethr =  6.52E-10,  avg # of iterations =  4.0

     negative rho (up, down):  9.638E-04 0.000E+00

     total cpu time spent up to now is       32.8 secs

     total energy              =    -448.58655251 Ry
     estimated scf accuracy    <       0.00000015 Ry

     iteration # 33     ecut=   124.00 Ry     beta= 0.70
     Davidson diagonalization with overlap
     ethr =  5.51E-10,  avg # of iterations =  2.0

     negative rho (up, down):  9.641E-04 0.000E+00

     total cpu time spent up to now is       33.8 secs

     total energy              =    -448.58655246 Ry
     estimated scf accuracy    <       0.00000035 Ry

     iteration # 34     ecut=   124.00 Ry     beta= 0.70
     Davidson diagonalization with overlap
     ethr =  5.51E-10,  avg # of iterations =  2.3

     negative rho (up, down):  9.642E-04 0.000E+00

     total cpu time spent up to now is       34.7 secs

     total energy              =    -448.58655249 Ry
     estimated scf accuracy    <       0.00000002 Ry

     iteration # 35     ecut=   124.00 Ry     beta= 0.70
     Davidson diagonalization with overlap
     ethr =  7.35E-11,  avg # of iterations =  3.8

     negative rho (up, down):  9.641E-04 0.000E+00

     total cpu time spent up to now is       35.8 secs

     total energy              =    -448.58655249 Ry
     estimated scf accuracy    <       0.00000003 Ry

     iteration # 36     ecut=   124.00 Ry     beta= 0.70
     Davidson diagonalization with overlap
     ethr =  7.35E-11,  avg # of iterations =  2.8

     negative rho (up, down):  9.642E-04 0.000E+00

     total cpu time spent up to now is       36.7 secs

     End of self-consistent calculation

          k = 0.0000 0.0000 0.0000 (  3911 PWs)   bands (ev):

   -69.2103 -39.1517 -35.2713 -35.2713 -35.2713 -15.2460 -15.2460 -15.2460
    10.1528  13.8639  13.8639  16.6568  16.6568  16.6568  18.9983  18.9983
    20.9366  20.9366

          k = 0.0000 0.0000 0.0909 (  3947 PWs)   bands (ev):

   -69.2100 -39.1496 -35.2739 -35.2710 -35.2710 -15.2752 -15.2442 -15.2442
    10.3257  13.9470  13.9536  16.6441  16.6441  16.6947  18.8927  19.0380
    20.6858  20.6858

          k = 0.0000 0.0000 0.1818 (  3964 PWs)   bands (ev):

   -69.2093 -39.1439 -35.2806 -35.2699 -35.2699 -15.3532 -15.2395 -15.2395
    10.8272  14.1866  14.1906  16.6148  16.6148  16.8008  18.5875  19.1279
    20.1022  20.1022

          k = 0.0000 0.0000 0.2727 (  3988 PWs)   bands (ev):

   -69.2083 -39.1364 -35.2894 -35.2686 -35.2686 -15.4540 -15.2334 -15.2334
    11.6057  14.4523  14.5738  16.5899  16.5899  16.9516  18.1202  19.1616
    19.4564  19.4564

          k = 0.0000 0.0000 0.3636 (  4008 PWs)   bands (ev):

   -69.2074 -39.1296 -35.2974 -35.2674 -35.2674 -15.5455 -15.2277 -15.2277
    12.5660  14.5652  15.0485  16.5850  16.5850  17.1052  17.5653  18.9275
    18.9275  18.9715

          k = 0.0000 0.0000 0.4545 (  3992 PWs)   bands (ev):

   -69.2069 -39.1255 -35.3021 -35.2666 -35.2666 -15.5993 -15.2243 -15.2243
    13.5347  14.3044  15.4744  16.5939  16.5939  17.0903  17.2053  18.6282
    18.6282  18.6588

          k = 0.0000 0.0909 0.0909 (  3966 PWs)   bands (ev):

   -69.2097 -39.1473 -35.2748 -35.2724 -35.2706 -15.2763 -15.2701 -15.2424
    10.4951  14.0265  14.0436  16.5617  16.6235  16.7909  18.8775  19.0087
    20.4104  20.4353

          k = 0.0000 0.0909 0.1818 (  3978 PWs)   bands (ev):

   -69.2090 -39.1413 -35.2811 -35.2724 -35.2696 -15.3507 -15.2674 -15.2375
    10.9856  14.2440  14.2906  16.4813  16.5732  16.9084  18.6426  19.0872
    19.8667  19.9001

          k = 0.0000 0.0909 0.2727 (  3995 PWs)   bands (ev):

   -69.2080 -39.1334 -35.2900 -35.2716 -35.2682 -15.4505 -15.2605 -15.2310
    11.7434  14.5128  14.6445  16.4377  16.5167  16.9935  18.2447  19.0577
    19.3653  19.4002

          k = 0.0000 0.0909 0.3636 (  3991 PWs)   bands (ev):

   -69.2071 -39.1261 -35.2982 -35.2709 -35.2670 -15.5410 -15.2540 -15.2251
    12.6707  14.6170  15.0808  16.4435  16.4656  16.9997  17.7899  18.6460
    19.0665  19.2133

          k = 0.0000 0.0909 0.4545 (  3999 PWs)   bands (ev):

   -69.2066 -39.1218 -35.3030 -35.2704 -35.2663 -15.5943 -15.2502 -15.2216
    13.5943  14.3519  15.4692  16.3968  16.4805  16.9451  17.4633  18.3527
    18.9324  19.0197

          k = 0.0000 0.1818 0.1818 (  3972 PWs)   bands (ev):

   -69.2083 -39.1343 -35.2840 -35.2772 -35.2686 -15.3518 -15.3342 -15.2320
    11.4401  14.3900  14.5687  16.3070  16.4778  16.9857  18.6949  19.0459
    19.3497  19.5759

          k = 0.0000 0.1818 0.2727 (  4003 PWs)   bands (ev):

   -69.2073 -39.1252 -35.2920 -35.2794 -35.2673 -15.4412 -15.3324 -15.2248
    12.1275  14.5565  14.9462  16.1858  16.3868  16.9101  18.5209  18.8014
    19.2048  19.3971

          k = 0.0000 0.1818 0.3636 (  3997 PWs)   bands (ev):

   -69.2064 -39.1168 -35.3004 -35.2802 -35.2661 -15.5290 -15.3241 -15.2182
    12.9354  14.5943  15.3322  16.1499  16.3572  16.7002  18.2182  18.4617
    19.3303  19.4171

          k = 0.0000 0.1818 0.4545 (  3990 PWs)   bands (ev):

   -69.2059 -39.1118 -35.3055 -35.2806 -35.2654 -15.5808 -15.3190 -15.2143
    13.6841  14.3630  15.6125  16.2009  16.3901  16.4819  18.0481  18.2166
    19.3519  19.5140

          k = 0.0000 0.2727 0.2727 (  4000 PWs)   bands (ev):

   -69.2063 -39.1144 -35.2962 -35.2880 -35.2661 -15.4376 -15.4171 -15.2167
    12.6688  14.5348  15.3963  15.9775  16.3399  16.6425  18.5789  18.7502
    19.1053  19.5704

          k = 0.0000 0.2727 0.3636 (  3993 PWs)   bands (ev):

   -69.2054 -39.1045 -35.3035 -35.2923 -35.2649 -15.5134 -15.4148 -15.2091
    13.2266  14.4166  15.8407  15.8678  16.3180  16.4951  18.3958  18.7292
    19.2749  19.8465

          k = 0.0000 0.2727 0.4545 (  3996 PWs)   bands (ev):

   -69.2049 -39.0986 -35.3088 -35.2939 -35.2643 -15.5632 -15.4082 -15.2047
    13.6460  14.2282  15.8808  16.0551  16.0845  16.8466  18.1510  18.6845
    19.4869  20.0942

          k = 0.0000 0.3636 0.3636 (  4002 PWs)   bands (ev):

   -69.2046 -39.0932 -35.3073 -35.3025 -35.2639 -15.5040 -15.4922 -15.2008
    13.4198  14.2078  15.6811  15.9708  16.4456  16.8939  18.5222  19.0881
    19.1103  20.2512

          k = 0.0000 0.3636 0.4545 (  3999 PWs)   bands (ev):

   -69.2041 -39.0865 -35.3119 -35.3062 -35.2632 -15.5469 -15.4893 -15.1958
    13.5039  14.0682  15.6294  15.7309  16.8140  17.5391  18.2827  19.1483
    19.3230  20.5545

          k = 0.0000 0.4545 0.4545 (  3998 PWs)   bands (ev):

   -69.2035 -39.0793 -35.3139 -35.3133 -35.2626 -15.5379 -15.5363 -15.1906
    13.3946  13.9723  15.5085  15.5425  17.5106  17.9878  18.6670  18.8520
    19.4119  20.8262

          k = 0.0909 0.0909 0.0909 (  3959 PWs)   bands (ev):

   -69.2095 -39.1450 -35.2744 -35.2744 -35.2711 -15.2768 -15.2683 -15.2683
    10.6615  14.1185  14.1185  16.5391  16.5391  16.8681  18.9295  18.9295
    19.9929  20.6652

          k = 0.0909 0.0909 0.1818 (  3966 PWs)   bands (ev):

   -69.2087 -39.1386 -35.2813 -35.2733 -35.2710 -15.3482 -15.2670 -15.2635
    11.1426  14.3361  14.3554  16.4287  16.4796  16.9503  18.7012  19.0493
    19.5188  20.0789

          k = 0.0909 0.0909 0.2727 (  3992 PWs)   bands (ev):

   -69.2077 -39.1303 -35.2905 -35.2720 -35.2707 -15.4470 -15.2590 -15.2572
    11.8826  14.6168  14.6736  16.3700  16.3987  16.9454  18.3564  19.0006
    19.3237  19.4428

          k = 0.0909 0.0909 0.3636 (  3994 PWs)   bands (ev):

   -69.2069 -39.1227 -35.2989 -35.2707 -35.2704 -15.5367 -15.2515 -15.2514
    12.7810  14.7008  15.0813  16.2989  16.4005  16.8595  17.9712  18.7163
    18.9369  19.4203

          k = 0.0909 0.0909 0.4545 (  4007 PWs)   bands (ev):

   -69.2063 -39.1181 -35.3038 -35.2702 -35.2699 -15.5895 -15.2480 -15.2470
    13.6656  14.4197  15.4383  16.1745  16.5156  16.7699  17.6949  18.4315
    18.6598  19.5237

          k = 0.0909 0.1818 0.1818 (  3984 PWs)   bands (ev):

   -69.2080 -39.1314 -35.2836 -35.2780 -35.2712 -15.3485 -15.3323 -15.2593
    11.5926  14.4938  14.6188  16.2700  16.3702  16.9131  18.7644  19.0172
    19.2359  19.7949

          k = 0.0909 0.1818 0.2727 (  3994 PWs)   bands (ev):

   -69.2070 -39.1221 -35.2920 -35.2795 -35.2705 -15.4379 -15.3300 -15.2517
    12.2705  14.6757  14.9647  16.1421  16.2715  16.7315  18.6110  18.9229
    19.2408  19.4560

          k = 0.0909 0.1818 0.3636 (  4001 PWs)   bands (ev):

   -69.2061 -39.1134 -35.3007 -35.2800 -35.2697 -15.5252 -15.3216 -15.2446
    13.0616  14.7215  15.2859  16.0686  16.2634  16.5479  18.3725  18.5771
    19.1013  19.7200

          k = 0.0909 0.1818 0.4545 (  3993 PWs)   bands (ev):

   -69.2056 -39.1083 -35.3060 -35.2802 -35.2692 -15.5767 -15.3165 -15.2403
    13.7875  14.4740  15.5175  16.0018  16.3647  16.4909  18.1992  18.2872
    18.8992  20.1084

          k = 0.0909 0.2727 0.2727 (  3989 PWs)   bands (ev):

   -69.2061 -39.1113 -35.2957 -35.2883 -35.2695 -15.4338 -15.4152 -15.2433
    12.8158  14.6587  15.4058  15.9390  16.2101  16.4306  18.6963  18.9064
    19.0874  19.7048

          k = 0.0909 0.2727 0.3636 (  3985 PWs)   bands (ev):

   -69.2052 -39.1013 -35.3033 -35.2922 -35.2686 -15.5102 -15.4124 -15.2356
    13.3704  14.5419  15.7742  15.8302  16.2030  16.3600  18.4781  18.8194
    19.1583  20.1173

          k = 0.0909 0.2727 0.4545 (  4006 PWs)   bands (ev):

   -69.2047 -39.0954 -35.3089 -35.2935 -35.2680 -15.5599 -15.4059 -15.2309
    13.7756  14.3545  15.7972  15.8477  16.1550  16.7541  18.1884  18.7888
    19.0873  20.6003

          k = 0.0909 0.3636 0.3636 (  3992 PWs)   bands (ev):

   -69.2043 -39.0901 -35.3068 -35.3024 -35.2675 -15.5010 -15.4902 -15.2272
    13.5656  14.3325  15.6507  15.8817  16.4032  16.7209  18.4860  18.9868
    19.1887  20.5637

          k = 0.0909 0.3636 0.4545 (  4002 PWs)   bands (ev):

   -69.2038 -39.0835 -35.3116 -35.3057 -35.2669 -15.5444 -15.4872 -15.2223
    13.6402  14.1966  15.5970  15.6797  16.7391  17.3611  18.2404  18.9495
    19.2816  20.7958

          k = 0.0909 0.4545 0.4545 (  3993 PWs)   bands (ev):

   -69.2033 -39.0764 -35.3134 -35.3128 -35.2662 -15.5359 -15.5344 -15.2171
    13.5314  14.1009  15.4861  15.5157  17.4523  17.8446  18.4160  18.5135
    19.4900  21.0194

          k = 0.1818 0.1818 0.1818 (  3989 PWs)   bands (ev):

   -69.2072 -39.1238 -35.2825 -35.2825 -35.2757 -15.3446 -15.3274 -15.3274
    12.0266  14.7610  14.7610  16.1713  16.1713  16.6504  18.9329  18.9329
    19.2930  20.0375

          k = 0.1818 0.1818 0.2727 (  3992 PWs)   bands (ev):

   -69.2063 -39.1137 -35.2922 -35.2810 -35.2777 -15.4290 -15.3257 -15.3208
    12.6697  14.9702  15.0333  16.0341  16.0388  16.3368  18.8050  19.0078
    19.4274  19.5989

          k = 0.1818 0.1818 0.3636 (  3994 PWs)   bands (ev):

   -69.2054 -39.1044 -35.3017 -35.2796 -35.2790 -15.5149 -15.3149 -15.3148
    13.3929  15.0074  15.2036  15.8991  16.0682  16.2650  18.6704  18.7433
    18.9524  20.1601

          k = 0.1818 0.1818 0.4545 (  3986 PWs)   bands (ev):

   -69.2049 -39.0989 -35.3073 -35.2797 -35.2788 -15.5656 -15.3112 -15.3084
    14.0172  14.6821  15.3921  15.7788  16.1845  16.4450  18.3322  18.5953
    18.6807  20.5299

          k = 0.1818 0.2727 0.2727 (  3994 PWs)   bands (ev):

   -69.2053 -39.1027 -35.2945 -35.2893 -35.2787 -15.4236 -15.4100 -15.3143
    13.2274  14.9964  15.4273  15.8397  15.9189  15.9976  18.8252  19.0096
    19.3285  20.0778

          k = 0.1818 0.2727 0.3636 (  3988 PWs)   bands (ev):

   -69.2045 -39.0926 -35.3031 -35.2918 -35.2783 -15.5016 -15.4059 -15.3060
    13.7701  14.8707  15.5750  15.7253  15.9737  16.0870  18.5906  18.8383
    19.2207  20.3803

          k = 0.1818 0.2727 0.4545 (  3991 PWs)   bands (ev):

   -69.2039 -39.0866 -35.3091 -35.2925 -35.2779 -15.5511 -15.3998 -15.3010
    14.1253  14.6660  15.5488  15.6706  16.0602  16.5356  18.2319  18.6757
    19.1298  20.6015

          k = 0.1818 0.3636 0.3636 (  3990 PWs)   bands (ev):

   -69.2036 -39.0817 -35.3055 -35.3023 -35.2773 -15.4928 -15.4851 -15.2978
    13.9820  14.6576  15.5747  15.6896  16.2719  16.2956  18.4622  18.6970
    19.4851  20.5436

          k = 0.1818 0.3636 0.4545 (  3993 PWs)   bands (ev):

   -69.2031 -39.0753 -35.3108 -35.3045 -35.2767 -15.5378 -15.4816 -15.2929
    14.0272  14.5323  15.5200  15.5675  16.4915  16.9250  18.1794  18.5402
    19.5617  20.7854

          k = 0.1818 0.4545 0.4545 (  4002 PWs)   bands (ev):

   -69.2026 -39.0685 -35.3120 -35.3116 -35.2760 -15.5303 -15.5293 -15.2880
    13.9234  14.4435  15.4329  15.4545  17.1746  17.2812  18.0690  18.2503
    19.7506  21.0766

          k = 0.2727 0.2727 0.2727 (  3998 PWs)   bands (ev):

   -69.2044 -39.0915 -35.2928 -35.2928 -35.2886 -15.4132 -15.4033 -15.4033
    13.7990  15.4441  15.4441  15.5182  15.7193  15.7193  18.8337  18.8337
    19.7984  19.7984

          k = 0.2727 0.2727 0.3636 (  3992 PWs)   bands (ev):

   -69.2035 -39.0812 -35.3030 -35.2913 -35.2908 -15.4904 -15.3973 -15.3971
    14.2965  15.1356  15.4426  15.6207  15.7209  15.9354  18.5785  18.6239
    19.6455  20.2948

          k = 0.2727 0.2727 0.4545 (  3990 PWs)   bands (ev):

   -69.2030 -39.0751 -35.3095 -35.2915 -35.2905 -15.5396 -15.3934 -15.3900
    14.5098  14.9115  15.4302  15.5701  15.9004  16.3710  18.1751  18.4970
    19.5915  20.6353

          k = 0.2727 0.3636 0.3636 (  3988 PWs)   bands (ev):

   -69.2027 -39.0707 -35.3037 -35.3021 -35.2902 -15.4821 -15.4783 -15.3891
    14.5958  15.0027  15.4918  15.5872  15.8170  16.0595  18.4143  18.4173
    19.9497  20.4947

          k = 0.2727 0.3636 0.4545 (  3992 PWs)   bands (ev):

   -69.2021 -39.0645 -35.3099 -35.3030 -35.2896 -15.5291 -15.4742 -15.3843
    14.5794  14.9171  15.4521  15.5076  16.1032  16.4659  18.0772  18.3313
    20.0121  20.8207

          k = 0.2727 0.4545 0.4545 (  4000 PWs)   bands (ev):

   -69.2016 -39.0581 -35.3102 -35.3100 -35.2888 -15.5231 -15.5225 -15.3799
    14.5067  14.8769  15.3854  15.4135  16.6254  16.6526  17.9060  18.1706
    20.1898  21.1137

          k = 0.3636 0.3636 0.3636 (  3999 PWs)   bands (ev):

   -69.2018 -39.0606 -35.3021 -35.3021 -35.3018 -15.4723 -15.4721 -15.4721
    14.9948  15.3300  15.4470  15.4470  15.8146  15.8146  18.2411  18.2411
    20.5003  20.5003

          k = 0.3636 0.3636 0.4545 (  4008 PWs)   bands (ev):

   -69.2013 -39.0545 -35.3090 -35.3018 -35.3012 -15.5211 -15.4684 -15.4664
    14.9932  15.1653  15.4767  15.6074  15.7984  16.1605  17.9824  18.1639
    20.5130  20.9127

          k = 0.3636 0.4545 0.4545 (  3994 PWs)   bands (ev):

   -69.2008 -39.0486 -35.3085 -35.3085 -35.3006 -15.5164 -15.5163 -15.4633
    15.1009  15.2496  15.3888  15.4963  16.0924  16.1437  17.8651  18.0301
    20.7354  21.1431

          k = 0.4545 0.4545 0.4545 (  3972 PWs)   bands (ev):

   -69.2003 -39.0430 -35.3076 -35.3075 -35.3075 -15.5126 -15.5126 -15.5122
    15.3317  15.4752  15.4752  15.7776  15.7776  15.8004  17.8552  17.8552
    21.1598  21.1598

     the Fermi energy is    17.5936 ev

!    total energy              =    -448.58655249 Ry
     estimated scf accuracy    <          4.6E-09 Ry
     smearing contrib. (-TS)   =       0.00005040 Ry
     internal energy E=F+TS    =    -448.58660289 Ry

     The total energy is F=E-TS. E is the sum of the following terms:
     one-electron contribution =    -151.34258935 Ry
     hartree contribution      =      91.61754649 Ry
     xc contribution           =     -52.88701351 Ry
     ewald contribution        =    -259.82070277 Ry
     one-center paw contrib.   =     -76.15384375 Ry

     convergence has been achieved in  36 iterations

     negative rho (up, down):  9.642E-04 0.000E+00

     Forces acting on atoms (cartesian axes, Ry/au):

     atom    1 type  1   force =     0.00000000    0.00000000    0.00000000
     atom    2 type  2   force =     0.00000000    0.00000000    0.00000000

     Total force =     0.000000     Total SCF correction =     0.000000


     Computing stress (Cartesian axis) and pressure


     negative rho (up, down):  9.642E-04 0.000E+00
          total   stress  (Ry/bohr**3)                   (kbar)     P=       31.33
   0.00021297   0.00000000   0.00000000           31.33        0.00        0.00
   0.00000000   0.00021297   0.00000000            0.00       31.33        0.00
   0.00000000   0.00000000   0.00021297            0.00        0.00       31.33


     BFGS Geometry Optimization
     Energy error            =      7.2E-02 Ry
     Gradient error          =      0.0E+00 Ry/Bohr
     Cell gradient error     =      3.3E+02 kbar

     number of scf cycles    =   1
     number of bfgs steps    =   0

     enthalpy           new  =    -448.1651720207 Ry

     new trust radius        =       0.1470619644 bohr
     new conv_thr            =       0.0000000100 Ry

     new unit-cell volume =    143.98259 a.u.^3 (    21.33602 Ang^3 )
     density =      8.07169 g/cm^3

CELL_PARAMETERS (alat=  5.55330037)
   0.943811994   0.000000000   0.000000000
   0.000000000   0.943811994   0.000000000
   0.000000000   0.000000000   0.943811994

ATOMIC_POSITIONS (crystal)
Fe               0.5000000000        0.5000000000        0.5000000000
Ti               0.0000000000        0.0000000000        0.0000000000



     Writing config-only to output data dir ./TiFe.save/ :
     XML data file
     NEW-OLD atomic charge density approx. for the potential
     New effective cutoffs (rho, wfc): 1948.71  139.20

     Check: negative core charge=   -0.000001

     negative rho (up, down):  8.591E-04 0.000E+00

     total cpu time spent up to now is       38.7 secs

     per-process dynamical memory:   153.2 Mb

     Self-consistent Calculation

     iteration #  1     ecut=   124.00 Ry     beta= 0.70
     Davidson diagonalization with overlap
     ethr =  1.00E-06,  avg # of iterations = 10.8

     negative rho (up, down):  8.974E-04 0.000E+00

     total cpu time spent up to now is       40.9 secs

     total energy              =    -448.53801288 Ry
     estimated scf accuracy    <       0.00206546 Ry

     iteration #  2     ecut=   124.00 Ry     beta= 0.70
     Davidson diagonalization with overlap
     ethr =  7.38E-06,  avg # of iterations =  4.0

     negative rho (up, down):  9.127E-04 0.000E+00

     total cpu time spent up to now is       42.1 secs

     total energy              =    -448.53280064 Ry
     estimated scf accuracy    <       0.07331660 Ry

     iteration #  3     ecut=   124.00 Ry     beta= 0.70
     Davidson diagonalization with overlap
     ethr =  7.38E-06,  avg # of iterations =  4.2

     negative rho (up, down):  9.087E-04 0.000E+00

     total cpu time spent up to now is       43.2 secs

     total energy              =    -448.53971717 Ry
     estimated scf accuracy    <       0.00367881 Ry

     iteration #  4     ecut=   124.00 Ry     beta= 0.70
     Davidson diagonalization with overlap
     ethr =  7.38E-06,  avg # of iterations =  1.6

     negative rho (up, down):  9.178E-04 0.000E+00

     total cpu time spent up to now is       44.1 secs

     total energy              =    -448.53995386 Ry
     estimated scf accuracy    <       0.00028993 Ry

     iteration #  5     ecut=   124.00 Ry     beta= 0.70
     Davidson diagonalization with overlap
     ethr =  1.04E-06,  avg # of iterations =  3.2

     negative rho (up, down):  9.184E-04 0.000E+00

     total cpu time spent up to now is       45.1 secs

     total energy              =    -448.53998750 Ry
     estimated scf accuracy    <       0.00001147 Ry

     iteration #  6     ecut=   124.00 Ry     beta= 0.70
     Davidson diagonalization with overlap
     ethr =  4.10E-08,  avg # of iterations =  4.4

     negative rho (up, down):  9.186E-04 0.000E+00

     total cpu time spent up to now is       46.1 secs

     total energy              =    -448.53999114 Ry
     estimated scf accuracy    <       0.00000020 Ry

     iteration #  7     ecut=   124.00 Ry     beta= 0.70
     Davidson diagonalization with overlap
     ethr =  7.30E-10,  avg # of iterations =  4.9

     negative rho (up, down):  9.187E-04 0.000E+00

     total cpu time spent up to now is       47.4 secs

     total energy              =    -448.53999144 Ry
     estimated scf accuracy    <       0.00000078 Ry

     iteration #  8     ecut=   124.00 Ry     beta= 0.70
     Davidson diagonalization with overlap
     ethr =  7.30E-10,  avg # of iterations =  2.7

     negative rho (up, down):  9.188E-04 0.000E+00

     total cpu time spent up to now is       48.3 secs

     End of self-consistent calculation

          k = 0.0000 0.0000 0.0000 (  3911 PWs)   bands (ev):

   -65.4941 -34.9726 -31.5646 -31.5646 -31.5646 -10.9884 -10.9884 -10.9884
    13.5273  16.6674  16.6674  20.2530  20.2530  20.2530  23.1292  23.1292
    25.5814  25.5814

          k = 0.0000 0.0000 0.0963 (  3947 PWs)   bands (ev):

   -65.4934 -34.9698 -31.5677 -31.5637 -31.5637 -11.0422 -10.9859 -10.9859
    13.7315  16.7680  16.7990  20.2385  20.2385  20.3006  22.9864  23.1857
    25.2580  25.2580

          k = 0.0000 0.0000 0.1926 (  3964 PWs)   bands (ev):

   -65.4916 -34.9625 -31.5760 -31.5614 -31.5614 -11.1847 -10.9790 -10.9790
    14.3175  17.0634  17.1506  20.2071  20.2071  20.4346  22.5760  23.3243
    24.5117  24.5117

          k = 0.0000 0.0000 0.2890 (  3988 PWs)   bands (ev):

   -65.4893 -34.9531 -31.5865 -31.5583 -31.5583 -11.3676 -10.9699 -10.9699
    15.2060  17.5312  17.5932  20.1864  20.1864  20.6258  21.9543  23.4307
    23.6886  23.6886

          k = 0.0000 0.0000 0.3853 (  4008 PWs)   bands (ev):

   -65.4871 -34.9446 -31.5958 -31.5555 -31.5555 -11.5322 -10.9615 -10.9615
    16.2592  17.9186  18.1174  20.1957  20.1957  20.8222  21.2237  23.0113
    23.0113  23.3054

          k = 0.0000 0.0000 0.4816 (  3992 PWs)   bands (ev):

   -65.4858 -34.9397 -31.6012 -31.5539 -31.5539 -11.6285 -10.9566 -10.9566
    17.2396  17.8722  18.6552  20.2205  20.2205  20.5989  20.9511  22.6238
    22.6238  22.9952

          k = 0.0000 0.0963 0.0963 (  3966 PWs)   bands (ev):

   -65.4928 -34.9666 -31.5715 -31.5629 -31.5628 -11.0464 -11.0315 -10.9831
    13.9303  16.8761  16.9183  20.1281  20.2144  20.4304  22.9674  23.1466
    24.8991  24.9389

          k = 0.0000 0.0963 0.1926 (  3978 PWs)   bands (ev):

   -65.4910 -34.9579 -31.5803 -31.5622 -31.5606 -11.1806 -11.0291 -10.9756
    14.4984  17.1543  17.2702  20.0251  20.1581  20.5867  22.6517  23.2680
    24.2183  24.2434

          k = 0.0000 0.0963 0.2890 (  3995 PWs)   bands (ev):

   -65.4886 -34.9467 -31.5908 -31.5617 -31.5576 -11.3607 -11.0182 -10.9658
    15.3536  17.5699  17.7298  19.9757  20.0991  20.6986  22.1217  23.2780
    23.5967  23.6057

          k = 0.0000 0.0963 0.3853 (  3991 PWs)   bands (ev):

   -65.4865 -34.9366 -31.5999 -31.5616 -31.5548 -11.5230 -11.0079 -10.9568
    16.3537  17.9378  18.2097  19.9973  20.0440  20.6997  21.5297  22.7462
    23.1855  23.5195

          k = 0.0000 0.0963 0.4816 (  3999 PWs)   bands (ev):

   -65.4852 -34.9307 -31.6051 -31.5616 -31.5532 -11.6180 -11.0018 -10.9514
    17.2683  17.8938  18.6722  19.9484  20.0646  20.6108  21.1262  22.3986
    23.0237  23.3406

          k = 0.0000 0.1926 0.1926 (  3972 PWs)   bands (ev):

   -65.4892 -34.9457 -31.5903 -31.5655 -31.5584 -11.1868 -11.1452 -10.9666
    15.0076  17.3581  17.6419  19.7964  20.0530  20.6981  22.7276  23.2098
    23.5780  23.8198

          k = 0.0000 0.1926 0.2890 (  4003 PWs)   bands (ev):

   -65.4869 -34.9297 -31.6018 -31.5713 -31.5555 -11.3431 -11.1456 -10.9548
    15.7457  17.6142  18.1561  19.6420  19.9692  20.6023  22.4854  22.9315
    23.4248  23.5947

          k = 0.0000 0.1926 0.3853 (  3997 PWs)   bands (ev):

   -65.4847 -34.9151 -31.6109 -31.5778 -31.5529 -11.4985 -11.1310 -10.9439
    16.5486  17.8010  18.6555  19.6030  19.9737  20.3214  22.0910  22.5261
    23.6349  23.6553

          k = 0.0000 0.1926 0.4816 (  3990 PWs)   bands (ev):

   -65.4834 -34.9064 -31.6157 -31.5822 -31.5513 -11.5898 -11.1220 -10.9374
    17.1950  17.7631  18.9788  19.6852  20.0209  20.0634  21.8811  22.2389
    23.7661  23.7732

          k = 0.0000 0.2890 0.2890 (  4000 PWs)   bands (ev):

   -65.4846 -34.9072 -31.6149 -31.5849 -31.5528 -11.3388 -11.2904 -10.9403
    16.2390  17.6296  18.7558  19.3725  19.9860  20.2535  22.6577  22.7836
    23.3235  23.8250

          k = 0.0000 0.2890 0.3853 (  3993 PWs)   bands (ev):

   -65.4824 -34.8866 -31.6252 -31.5991 -31.5504 -11.4666 -11.2889 -10.9269
    16.6549  17.5794  19.2349  19.3446  19.8278  20.2775  22.4527  22.7664
    23.5863  24.1901

          k = 0.0000 0.2890 0.4816 (  3996 PWs)   bands (ev):

   -65.4812 -34.8742 -31.6299 -31.6090 -31.5489 -11.5528 -11.2765 -10.9190
    16.8938  17.4920  19.2600  19.4796  19.6763  20.7757  22.1788  22.6888
    23.9519  24.5175

          k = 0.0000 0.3853 0.3853 (  4002 PWs)   bands (ev):

   -65.4804 -34.8601 -31.6376 -31.6197 -31.5481 -11.4483 -11.4204 -10.9113
    16.6206  17.3686  18.9956  19.3778  20.1198  20.8633  22.6795  23.2164
    23.4141  24.7149

          k = 0.0000 0.3853 0.4816 (  3999 PWs)   bands (ev):

   -65.4791 -34.8443 -31.6433 -31.6336 -31.5467 -11.5187 -11.4160 -10.9020
    16.5587  17.2431  18.9328  19.0653  20.6047  21.6419  22.4197  23.3105
    23.7580  25.1098

          k = 0.0000 0.4816 0.4816 (  3998 PWs)   bands (ev):

   -65.4779 -34.8263 -31.6511 -31.6485 -31.5454 -11.5000 -11.4962 -10.8918
    16.3576  17.1015  18.7778  18.8227  21.4121  22.0740  23.0379  23.2685
    23.6525  25.4615

          k = 0.0963 0.0963 0.0963 (  3959 PWs)   bands (ev):

   -65.4921 -34.9629 -31.5707 -31.5707 -31.5588 -11.0489 -11.0289 -11.0289
    14.1245  17.0088  17.0088  20.1008  20.1008  20.5383  23.0394  23.0394
    24.3668  25.2332

          k = 0.0963 0.0963 0.1926 (  3966 PWs)   bands (ev):

   -65.4903 -34.9531 -31.5816 -31.5683 -31.5577 -11.1763 -11.0293 -11.0218
    14.6782  17.2727  17.3608  19.9593  20.0297  20.6543  22.7313  23.2161
    23.7628  24.4864

          k = 0.0963 0.0963 0.2890 (  3992 PWs)   bands (ev):

   -65.4880 -34.9403 -31.5934 -31.5651 -31.5586 -11.3540 -11.0154 -11.0126
    15.5057  17.6843  17.7920  19.8952  19.9345  20.6494  22.2704  23.1877
    23.5456  23.6807

          k = 0.0963 0.0963 0.3853 (  3994 PWs)   bands (ev):

   -65.4858 -34.9287 -31.6031 -31.5622 -31.5601 -11.5143 -11.0041 -11.0024
    16.4615  18.0716  18.1855  19.8144  19.9553  20.5255  21.7658  22.8832
    23.0371  23.7273

          k = 0.0963 0.0963 0.4816 (  4007 PWs)   bands (ev):

   -65.4845 -34.9219 -31.6085 -31.5612 -31.5605 -11.6082 -10.9991 -10.9946
    17.3248  17.9651  18.6266  19.6578  20.1312  20.3982  21.4152  22.5880
    22.6804  23.8981

          k = 0.0963 0.1926 0.1926 (  3984 PWs)   bands (ev):

   -65.4885 -34.9400 -31.5893 -31.5724 -31.5581 -11.1804 -11.1425 -11.0156
    15.1832  17.5000  17.7022  19.7518  19.9010  20.6181  22.8223  23.1711
    23.4166  24.1234

          k = 0.0963 0.1926 0.2890 (  3994 PWs)   bands (ev):

   -65.4862 -34.9230 -31.6017 -31.5743 -31.5596 -11.3366 -11.1414 -11.0027
    15.9109  17.7664  18.1822  19.5917  19.8034  20.3785  22.6103  23.0936
    23.4564  23.6902

          k = 0.0963 0.1926 0.3853 (  4001 PWs)   bands (ev):

   -65.4841 -34.9075 -31.6122 -31.5781 -31.5596 -11.4910 -11.1267 -10.9907
    16.6924  17.9649  18.5901  19.5139  19.8317  20.1319  22.2845  22.6851
    23.3136  24.0795

          k = 0.0963 0.1926 0.4816 (  3993 PWs)   bands (ev):

   -65.4828 -34.8983 -31.6179 -31.5815 -31.5589 -11.5817 -11.1177 -10.9834
    17.3163  17.9038  18.8186  19.4665  19.9228  20.1420  22.0673  22.3443
    23.0779  24.6167

          k = 0.0963 0.2890 0.2890 (  3989 PWs)   bands (ev):

   -65.4839 -34.9003 -31.6138 -31.5870 -31.5590 -11.3312 -11.2878 -10.9879
    16.4175  17.7894  18.7646  19.3308  19.7940  19.9881  22.8111  22.9705
    23.3052  24.0243

          k = 0.0963 0.2890 0.3853 (  3985 PWs)   bands (ev):

   -65.4818 -34.8794 -31.6248 -31.5998 -31.5575 -11.4607 -11.2851 -10.9741
    16.8279  17.7396  19.1593  19.2792  19.7057  20.0830  22.5607  22.8739
    23.4177  24.5732

          k = 0.0963 0.2890 0.4816 (  4006 PWs)   bands (ev):

   -65.4806 -34.8669 -31.6306 -31.6083 -31.5564 -11.5469 -11.2730 -10.9658
    17.0469  17.6483  19.1554  19.2609  19.7518  20.6352  22.2336  22.8167
    23.3644  25.1780

          k = 0.0963 0.3853 0.3853 (  3992 PWs)   bands (ev):

   -65.4797 -34.8533 -31.6364 -31.6200 -31.5554 -11.4429 -11.4180 -10.9588
    16.7917  17.5292  18.9616  19.2703  20.0731  20.6429  22.5958  23.2628
    23.3369  25.1448

          k = 0.0963 0.3853 0.4816 (  4002 PWs)   bands (ev):

   -65.4785 -34.8377 -31.6427 -31.6328 -31.5541 -11.5149 -11.4132 -10.9496
    16.7197  17.4050  18.8981  19.0077  20.5288  21.4310  22.3305  23.2417
    23.4651  25.3973

          k = 0.0963 0.4816 0.4816 (  3993 PWs)   bands (ev):

   -65.4773 -34.8202 -31.6498 -31.6475 -31.5527 -11.4973 -11.4939 -10.9400
    16.5213  17.2656  18.7562  18.7960  21.3601  21.9655  22.6159  22.7961
    23.7382  25.6690

          k = 0.1926 0.1926 0.1926 (  3989 PWs)   bands (ev):

   -65.4868 -34.9249 -31.5867 -31.5867 -31.5615 -11.1735 -11.1354 -11.1354
    15.6720  17.8733  17.8733  19.6345  19.6345  20.2903  23.0565  23.0565
    23.5097  24.4368

          k = 0.1926 0.1926 0.2890 (  3992 PWs)   bands (ev):

   -65.4845 -34.9052 -31.6030 -31.5833 -31.5683 -11.3196 -11.1340 -11.1260
    16.3564  18.1244  18.2984  19.4734  19.4820  19.8808  22.8808  23.2120
    23.6625  23.9172

          k = 0.1926 0.1926 0.3853 (  3994 PWs)   bands (ev):

   -65.4824 -34.8870 -31.6166 -31.5801 -31.5757 -11.4709 -11.1173 -11.1126
    17.0404  18.3996  18.4012  19.3302  19.5636  19.7877  22.6908  22.9491
    23.0629  24.6510

          k = 0.1926 0.1926 0.4816 (  3986 PWs)   bands (ev):

   -65.4811 -34.8763 -31.6242 -31.5805 -31.5783 -11.5598 -11.1122 -11.0996
    17.5387  18.1365  18.6072  19.2138  19.7399  20.1012  22.4714  22.5665
    22.7351  25.0565

          k = 0.1926 0.2890 0.2890 (  3994 PWs)   bands (ev):

   -65.4822 -34.8817 -31.6109 -31.5937 -31.5748 -11.3107 -11.2808 -11.1143
    16.9125  18.2215  18.7788  19.2295  19.3580  19.4662  22.9675  23.2194
    23.5034  24.5485

          k = 0.1926 0.2890 0.3853 (  3988 PWs)   bands (ev):

   -65.4801 -34.8601 -31.6241 -31.6013 -31.5767 -11.4449 -11.2747 -11.0994
    17.3063  18.1527  18.9139  19.1173  19.5106  19.6521  22.7033  23.0226
    23.3636  24.8484

          k = 0.1926 0.2890 0.4816 (  3991 PWs)   bands (ev):

   -65.4789 -34.8472 -31.6329 -31.6062 -31.5766 -11.5311 -11.2636 -11.0901
    17.4551  18.0171  18.8391  19.0770  19.6773  20.3050  22.3111  22.7998
    23.2371  25.1431

          k = 0.1926 0.3853 0.3853 (  3990 PWs)   bands (ev):

   -65.4780 -34.8351 -31.6332 -31.6211 -31.5751 -11.4285 -11.4114 -11.0848
    17.2767  17.9427  18.8794  19.0496  19.9230  20.0793  22.5408  22.8898
    23.7023  25.0497

          k = 0.1926 0.3853 0.4816 (  3993 PWs)   bands (ev):

   -65.4768 -34.8201 -31.6412 -31.6305 -31.5740 -11.5048 -11.4056 -11.0761
    17.1737  17.8202  18.8151  18.8974  20.2631  20.8535  22.2400  22.6716
    23.8031  25.3650

          k = 0.1926 0.4816 0.4816 (  4002 PWs)   bands (ev):

   -65.4756 -34.8039 -31.6465 -31.6448 -31.5724 -11.4901 -11.4878 -11.0676
    16.9891  17.6995  18.7089  18.7413  21.0853  21.3135  22.1354  22.3083
    24.0575  25.7278

          k = 0.2890 0.2890 0.2890 (  3998 PWs)   bands (ev):

   -65.4799 -34.8572 -31.6071 -31.6071 -31.5906 -11.2891 -11.2716 -11.2716
    17.5596  18.7692  18.7692  18.8591  19.1245  19.1245  23.0045  23.0045
    24.0923  24.0923

          k = 0.2890 0.2890 0.3853 (  3992 PWs)   bands (ev):

   -65.4779 -34.8346 -31.6248 -31.6036 -31.5998 -11.4246 -11.2632 -11.2580
    17.8905  18.4565  18.7268  19.0569  19.1946  19.4577  22.7223  22.7310
    23.8917  24.7301

          k = 0.2890 0.2890 0.4816 (  3990 PWs)   bands (ev):

   -65.4766 -34.8211 -31.6362 -31.6044 -31.6015 -11.5105 -11.2582 -11.2433
    17.8460  18.2589  18.6891  19.0249  19.5277  20.0728  22.2445  22.5629
    23.8213  25.1790

          k = 0.2890 0.3853 0.3853 (  3988 PWs)   bands (ev):

   -65.4758 -34.8110 -31.6290 -31.6225 -31.6008 -11.4095 -11.4029 -11.2471
    17.9530  18.3652  18.7978  18.9995  19.4381  19.6654  22.4829  22.5160
    24.2854  24.9801

          k = 0.2890 0.3853 0.4816 (  3992 PWs)   bands (ev):

   -65.4746 -34.7969 -31.6396 -31.6272 -31.5999 -11.4915 -11.3956 -11.2388
    17.8025  18.2594  18.7499  18.9073  19.8140  20.2255  22.1037  22.3787
    24.3669  25.4043

          k = 0.2890 0.4816 0.4816 (  4000 PWs)   bands (ev):

   -65.4734 -34.7824 -31.6421 -31.6412 -31.5981 -11.4807 -11.4797 -11.2320
    17.6801  18.2330  18.6819  18.7380  20.4568  20.4603  21.8735  22.1974
    24.6037  25.7743

          k = 0.3853 0.3853 0.3853 (  3999 PWs)   bands (ev):

   -65.4738 -34.7887 -31.6252 -31.6252 -31.6231 -11.3950 -11.3950 -11.3905
    18.2227  18.7718  18.7718  19.0704  19.3498  19.3498  22.2780  22.2780
    24.9862  24.9862

          k = 0.3853 0.3853 0.4816 (  4008 PWs)   bands (ev):

   -65.4726 -34.7754 -31.6385 -31.6247 -31.6229 -11.4793 -11.3903 -11.3816
    18.2318  18.5114  18.8364  19.0723  19.4765  19.8064  21.9677  22.1741
    25.0025  25.5197

          k = 0.3853 0.4816 0.4816 (  3994 PWs)   bands (ev):

   -65.4714 -34.7626 -31.6380 -31.6378 -31.6217 -11.4723 -11.4720 -11.3803
    18.3719  18.6461  18.7319  18.9409  19.7546  19.7872  21.8119  22.0163
    25.2917  25.8130

          k = 0.4816 0.4816 0.4816 (  3972 PWs)   bands (ev):

   -65.4702 -34.7508 -31.6360 -31.6356 -31.6356 -11.4679 -11.4679 -11.4661
    18.6935  18.9108  18.9108  19.2619  19.2619  19.3677  21.7979  21.7979
    25.8354  25.8354

     the Fermi energy is    21.4806 ev

!    total energy              =    -448.53999149 Ry
     estimated scf accuracy    <          6.9E-09 Ry
     smearing contrib. (-TS)   =       0.00004749 Ry
     internal energy E=F+TS    =    -448.54003898 Ry

     The total energy is F=E-TS. E is the sum of the following terms:
     one-electron contribution =    -127.75186156 Ry
     hartree contribution      =      83.89305245 Ry
     xc contribution           =     -53.23533431 Ry
     ewald contribution        =    -275.28862151 Ry
     one-center paw contrib.   =     -76.15727404 Ry

     convergence has been achieved in   8 iterations

     negative rho (up, down):  9.188E-04 0.000E+00

     Forces acting on atoms (cartesian axes, Ry/au):

     atom    1 type  1   force =     0.00000000    0.00000000    0.00000000
     atom    2 type  2   force =     0.00000000    0.00000000    0.00000000

     Total force =     0.000000     Total SCF correction =     0.000000


     Computing stress (Cartesian axis) and pressure


     negative rho (up, down):  9.188E-04 0.000E+00
          total   stress  (Ry/bohr**3)                   (kbar)     P=      537.65
   0.00365486   0.00000000   0.00000000          537.65        0.00        0.00
   0.00000000   0.00365486   0.00000000            0.00      537.65        0.00
   0.00000000   0.00000000   0.00365486            0.00        0.00      537.65

     Energy error            =      2.1E-02 Ry
     Gradient error          =      0.0E+00 Ry/Bohr
     Cell gradient error     =      1.8E+02 kbar

     number of scf cycles    =   2
     number of bfgs steps    =   1

     enthalpy           old  =    -448.1651720207 Ry
     enthalpy           new  =    -448.1857243427 Ry

     CASE: enthalpy          _new < enthalpy          _old

     new trust radius        =       0.0459026324 bohr
     new conv_thr            =            1.0E-10 Ry

     new unit-cell volume =    152.40360 a.u.^3 (    22.58388 Ang^3 )
     density =      7.62570 g/cm^3

CELL_PARAMETERS (alat=  5.55330037)
   0.961864525   0.000000000   0.000000000
   0.000000000   0.961864525   0.000000000
   0.000000000   0.000000000   0.961864525

ATOMIC_POSITIONS (crystal)
Fe               0.5000000000        0.5000000000        0.5000000000
Ti               0.0000000000        0.0000000000        0.0000000000



     Writing config-only to output data dir ./TiFe.save/ :
     XML data file
     NEW-OLD atomic charge density approx. for the potential
     New effective cutoffs (rho, wfc): 1876.24  134.02

     Check: negative core charge=   -0.000002

     negative rho (up, down):  9.381E-04 0.000E+00

     total cpu time spent up to now is       50.3 secs

     per-process dynamical memory:   153.2 Mb

     Self-consistent Calculation

     iteration #  1     ecut=   124.00 Ry     beta= 0.70
     Davidson diagonalization with overlap
     ethr =  1.00E-06,  avg # of iterations =  8.4

     negative rho (up, down):  9.350E-04 0.000E+00

     total cpu time spent up to now is       52.2 secs

     total energy              =    -448.56308725 Ry
     estimated scf accuracy    <       0.00101732 Ry

     iteration #  2     ecut=   124.00 Ry     beta= 0.70
     Davidson diagonalization with overlap
     ethr =  3.63E-06,  avg # of iterations =  4.8

     negative rho (up, down):  9.238E-04 0.000E+00

     total cpu time spent up to now is       53.4 secs

     total energy              =    -448.55991457 Ry
     estimated scf accuracy    <       0.07986219 Ry

     iteration #  3     ecut=   124.00 Ry     beta= 0.70
     Davidson diagonalization with overlap
     ethr =  3.63E-06,  avg # of iterations =  4.6

     negative rho (up, down):  9.326E-04 0.000E+00

     total cpu time spent up to now is       54.6 secs

     total energy              =    -448.56471754 Ry
     estimated scf accuracy    <       0.00020265 Ry

     iteration #  4     ecut=   124.00 Ry     beta= 0.70
     Davidson diagonalization with overlap
     ethr =  7.24E-07,  avg # of iterations =  2.1

     negative rho (up, down):  9.345E-04 0.000E+00

     total cpu time spent up to now is       55.6 secs

     total energy              =    -448.56477052 Ry
     estimated scf accuracy    <       0.00001087 Ry

     iteration #  5     ecut=   124.00 Ry     beta= 0.70
     Davidson diagonalization with overlap
     ethr =  3.88E-08,  avg # of iterations =  5.2

     negative rho (up, down):  9.322E-04 0.000E+00

     total cpu time spent up to now is       56.9 secs

     total energy              =    -448.56477948 Ry
     estimated scf accuracy    <       0.00000225 Ry

     iteration #  6     ecut=   124.00 Ry     beta= 0.70
     Davidson diagonalization with overlap
     ethr =  8.03E-09,  avg # of iterations =  2.9

     negative rho (up, down):  9.327E-04 0.000E+00

     total cpu time spent up to now is       58.0 secs

     total energy              =    -448.56478028 Ry
     estimated scf accuracy    <       0.00000092 Ry

     iteration #  7     ecut=   124.00 Ry     beta= 0.70
     Davidson diagonalization with overlap
     ethr =  3.30E-09,  avg # of iterations =  1.9

     negative rho (up, down):  9.329E-04 0.000E+00

     total cpu time spent up to now is       58.9 secs

     total energy              =    -448.56478037 Ry
     estimated scf accuracy    <       0.00000005 Ry

     iteration #  8     ecut=   124.00 Ry     beta= 0.70
     Davidson diagonalization with overlap
     ethr =  1.96E-10,  avg # of iterations =  4.2

     negative rho (up, down):  9.328E-04 0.000E+00

     total cpu time spent up to now is       60.1 secs

     total energy              =    -448.56478040 Ry
     estimated scf accuracy    <          2.0E-09 Ry

     iteration #  9     ecut=   124.00 Ry     beta= 0.70
     Davidson diagonalization with overlap
     ethr =  7.17E-12,  avg # of iterations =  4.7

     negative rho (up, down):  9.328E-04 0.000E+00

     total cpu time spent up to now is       61.2 secs

     total energy              =    -448.56478040 Ry
     estimated scf accuracy    <          4.7E-10 Ry

     iteration # 10     ecut=   124.00 Ry     beta= 0.70
     Davidson diagonalization with overlap
     ethr =  1.69E-12,  avg # of iterations =  2.5

     negative rho (up, down):  9.328E-04 0.000E+00

     total cpu time spent up to now is       62.2 secs

     End of self-consistent calculation

          k = 0.0000 0.0000 0.0000 (  3911 PWs)   bands (ev):

   -66.7743 -36.3959 -32.8415 -32.8415 -32.8415 -12.4451 -12.4451 -12.4451
    12.3351  15.7094  15.7094  19.0158  19.0158  19.0158  21.7091  21.7091
    23.9837  23.9837

          k = 0.0000 0.0000 0.0945 (  3947 PWs)   bands (ev):

   -66.7738 -36.3932 -32.8447 -32.8409 -32.8409 -12.4893 -12.4428 -12.4428
    12.5282  15.8040  15.8255  19.0018  19.0018  19.0600  21.5797  21.7594
    23.6853  23.6853

          k = 0.0000 0.0000 0.1890 (  3964 PWs)   bands (ev):

   -66.7724 -36.3860 -32.8529 -32.8391 -32.8391 -12.6067 -12.4366 -12.4366
    13.0845  16.0814  16.1332  18.9707  18.9707  19.1840  21.2072  21.8798
    22.9952  22.9952

          k = 0.0000 0.0000 0.2835 (  3988 PWs)   bands (ev):

   -66.7707 -36.3767 -32.8635 -32.8368 -32.8368 -12.7578 -12.4285 -12.4285
    13.9355  16.5105  16.5200  18.9476  18.9476  19.3607  20.6407  21.9574
    22.2339  22.2339

          k = 0.0000 0.0000 0.3781 (  4008 PWs)   bands (ev):

   -66.7690 -36.3682 -32.8731 -32.8346 -32.8346 -12.8942 -12.4210 -12.4210
    14.9590  16.7574  17.0674  18.9507  18.9507  19.5416  19.9726  21.6090
    21.6090  21.8028

          k = 0.0000 0.0000 0.4726 (  3992 PWs)   bands (ev):

   -66.7681 -36.3632 -32.8786 -32.8333 -32.8333 -12.9742 -12.4165 -12.4165
    15.9414  16.6302  17.5656  18.9688  18.9688  19.4013  19.6601  21.2532
    21.2532  21.4852

          k = 0.0000 0.0945 0.0945 (  3966 PWs)   bands (ev):

   -66.7733 -36.3902 -32.8471 -32.8414 -32.8402 -12.4921 -12.4808 -12.4403
    12.7166  15.9016  15.9342  18.9016  18.9788  19.1773  21.5621  21.7238
    23.3559  23.3896

          k = 0.0000 0.0945 0.1890 (  3978 PWs)   bands (ev):

   -66.7719 -36.3821 -32.8551 -32.8412 -32.8385 -12.6032 -12.4782 -12.4337
    13.2578  16.1599  16.2461  18.8066  18.9239  19.3193  21.2754  21.8292
    22.7214  22.7511

          k = 0.0000 0.0945 0.2835 (  3995 PWs)   bands (ev):

   -66.7702 -36.3716 -32.8658 -32.8405 -32.8362 -12.7523 -12.4686 -12.4250
    14.0805  16.5334  16.6564  18.7588  18.8646  19.4212  20.7926  21.8239
    22.1400  22.1616

          k = 0.0000 0.0945 0.3781 (  3991 PWs)   bands (ev):

   -66.7685 -36.3621 -32.8755 -32.8398 -32.8340 -12.8869 -12.4597 -12.4170
    15.0590  16.7965  17.1297  18.7738  18.8099  19.4242  20.2486  21.3369
    21.7714  22.0278

          k = 0.0000 0.0945 0.4726 (  3999 PWs)   bands (ev):

   -66.7676 -36.3564 -32.8811 -32.8395 -32.8328 -12.9659 -12.4544 -12.4123
    15.9837  16.6636  17.5721  18.7251  18.8289  19.3487  19.8700  21.0088
    21.6185  21.8366

          k = 0.0000 0.1890 0.1890 (  3972 PWs)   bands (ev):

   -66.7706 -36.3717 -32.8620 -32.8456 -32.8368 -12.6071 -12.5755 -12.4260
    13.7493  16.3412  16.5855  18.5974  18.8206  19.4175  21.3428  21.7772
    22.1230  22.3633

          k = 0.0000 0.1890 0.2835 (  4003 PWs)   bands (ev):

   -66.7688 -36.3582 -32.8723 -32.8501 -32.8346 -12.7379 -12.5748 -12.4158
    14.4737  16.5661  17.0487  18.4547  18.7310  19.3286  21.1253  21.5096
    21.9708  22.1543

          k = 0.0000 0.1890 0.3781 (  3997 PWs)   bands (ev):

   -66.7672 -36.3457 -32.8820 -32.8538 -32.8325 -12.8674 -12.5625 -12.4065
    15.2865  16.7005  17.5043  18.4164  18.7197  19.0737  20.7633  21.1265
    22.1591  22.1862

          k = 0.0000 0.1890 0.4726 (  3990 PWs)   bands (ev):

   -66.7663 -36.3383 -32.8878 -32.8559 -32.8313 -12.9437 -12.5550 -12.4009
    15.9799  16.5891  17.8118  18.4864  18.7880  18.8036  20.5671  20.8526
    22.2310  22.3087

          k = 0.0000 0.2835 0.2835 (  4000 PWs)   bands (ev):

   -66.7671 -36.3405 -32.8816 -32.8618 -32.8325 -12.7338 -12.6969 -12.4037
    14.9930  16.5654  17.5959  18.2070  18.7182  19.0091  21.2549  21.3965
    21.8696  22.3640

          k = 0.0000 0.2835 0.3781 (  3993 PWs)   bands (ev):

   -66.7655 -36.3241 -32.8909 -32.8718 -32.8306 -12.8421 -12.6950 -12.3926
    15.4706  16.4882  18.0791  18.1318  18.6201  18.9566  21.0554  21.3786
    22.0951  22.6969

          k = 0.0000 0.2835 0.4726 (  3996 PWs)   bands (ev):

   -66.7646 -36.3144 -32.8968 -32.8774 -32.8294 -12.9145 -12.6848 -12.3860
    15.7778  16.3645  18.0995  18.3028  18.4297  19.4050  20.7899  21.3141
    22.3979  22.9953

          k = 0.0000 0.3781 0.3781 (  4002 PWs)   bands (ev):

   -66.7639 -36.3042 -32.8996 -32.8879 -32.8288 -12.8274 -12.8061 -12.3798
    15.5217  16.2757  17.8586  18.2071  18.8479  19.4768  21.2395  21.7975
    21.9241  23.1791

          k = 0.0000 0.3781 0.4726 (  3999 PWs)   bands (ev):

   -66.7630 -36.2922 -32.9052 -32.8971 -32.8277 -12.8877 -12.8023 -12.3722
    15.5089  16.1473  17.7995  17.9208  19.2915  20.2154  20.9832  21.8823
    22.2103  23.5414

          k = 0.0000 0.4726 0.4726 (  3998 PWs)   bands (ev):

   -66.7621 -36.2790 -32.9103 -32.9087 -32.8266 -12.8729 -12.8700 -12.3640
    15.3388  16.0220  17.6566  17.6976  20.0638  20.6625  21.5083  21.7243
    22.1924  23.8649

          k = 0.0945 0.0945 0.0945 (  3959 PWs)   bands (ev):

   -66.7728 -36.3869 -32.8464 -32.8464 -32.8386 -12.4937 -12.4785 -12.4785
    12.9011  16.0193  16.0193  18.8759  18.8759  19.2737  21.6268  21.6268
    22.8635  23.6616

          k = 0.0945 0.0945 0.1890 (  3966 PWs)   bands (ev):

   -66.7714 -36.3781 -32.8559 -32.8446 -32.8381 -12.5996 -12.4780 -12.4722
    13.4298  16.2673  16.3289  18.7452  18.8084  19.3767  21.3474  21.7824
    22.3051  22.9701

          k = 0.0945 0.0945 0.2835 (  3992 PWs)   bands (ev):

   -66.7697 -36.3666 -32.8673 -32.8422 -32.8384 -12.7468 -12.4663 -12.4639
    14.2286  16.6533  16.6974  18.6821  18.7176  19.3714  20.9281  21.7471
    22.0920  22.2233

          k = 0.0945 0.0945 0.3781 (  3994 PWs)   bands (ev):

   -66.7681 -36.3561 -32.8774 -32.8399 -32.8389 -12.8800 -12.4563 -12.4554
    15.1689  16.9046  17.1220  18.6041  18.7299  19.2617  20.4654  21.4475
    21.6283  22.2389

          k = 0.0945 0.0945 0.4726 (  4007 PWs)   bands (ev):

   -66.7671 -36.3499 -32.8833 -32.8392 -32.8386 -12.9581 -12.4517 -12.4489
    16.0465  16.7328  17.5336  18.4591  18.8823  19.1484  20.1400  21.1520
    21.3002  22.3819

          k = 0.0945 0.1890 0.1890 (  3984 PWs)   bands (ev):

   -66.7701 -36.3672 -32.8613 -32.8491 -32.8386 -12.6020 -12.5731 -12.4666
    13.9167  16.4691  16.6423  18.5553  18.6855  19.3394  21.4285  21.7421
    21.9803  22.6347

          k = 0.0945 0.1890 0.2835 (  3994 PWs)   bands (ev):

   -66.7684 -36.3530 -32.8723 -32.8514 -32.8388 -12.7326 -12.5713 -12.4557
    14.6308  16.7066  17.0720  18.4062  18.5847  19.1208  21.2377  21.6569
    22.0046  22.2351

          k = 0.0945 0.1890 0.3781 (  4001 PWs)   bands (ev):

   -66.7667 -36.3399 -32.8829 -32.8537 -32.8381 -12.8614 -12.5589 -12.4455
    15.4240  16.8522  17.4452  18.3290  18.5962  18.8971  20.9430  21.2702
    21.8610  22.5754

          k = 0.0945 0.1890 0.4726 (  3993 PWs)   bands (ev):

   -66.7658 -36.3322 -32.8892 -32.8553 -32.8374 -12.9372 -12.5514 -12.4393
    16.0941  16.7191  17.6781  18.2731  18.6963  18.8749  20.7426  20.9446
    21.6350  23.0562

          k = 0.0945 0.2835 0.2835 (  3989 PWs)   bands (ev):

   -66.7666 -36.3351 -32.8808 -32.8630 -32.8377 -12.7277 -12.6945 -12.4433
    15.1597  16.7121  17.6053  18.1657  18.5504  18.7625  21.3944  21.5743
    21.8512  22.5382

          k = 0.0945 0.2835 0.3781 (  3985 PWs)   bands (ev):

   -66.7650 -36.3186 -32.8907 -32.8720 -32.8363 -12.8372 -12.6916 -12.4318
    15.6335  16.6355  18.0031  18.0811  18.4989  18.7835  21.1537  21.4822
    21.9457  23.0368

          k = 0.0945 0.2835 0.4726 (  4006 PWs)   bands (ev):

   -66.7641 -36.3088 -32.8972 -32.8768 -32.8354 -12.9096 -12.6817 -12.4249
    15.9228  16.5100  18.0020  18.0870  18.5035  19.2816  20.8381  21.4348
    21.8837  23.6021

          k = 0.0945 0.3781 0.3781 (  3992 PWs)   bands (ev):

   -66.7635 -36.2989 -32.8987 -32.8880 -32.8346 -12.8229 -12.8038 -12.4192
    15.6844  16.4230  17.8256  18.1058  18.8022  19.2717  21.1763  21.7822
    21.9119  23.5642

          k = 0.0945 0.3781 0.4726 (  4002 PWs)   bands (ev):

   -66.7625 -36.2871 -32.9047 -32.8964 -32.8336 -12.8843 -12.7996 -12.4117
    15.6613  16.2969  17.7653  17.8649  19.2150  20.0124  20.9152  21.7535
    22.0260  23.8145

          k = 0.0945 0.4726 0.4726 (  3993 PWs)   bands (ev):

   -66.7616 -36.2742 -32.9094 -32.9079 -32.8325 -12.8704 -12.8677 -12.4038
    15.4930  16.1730  17.6344  17.6704  20.0090  20.5379  21.1530  21.3027
    22.2777  24.0705

          k = 0.1890 0.1890 0.1890 (  3989 PWs)   bands (ev):

   -66.7688 -36.3550 -32.8593 -32.8593 -32.8427 -12.5963 -12.5666 -12.5666
    14.3869  16.8035  16.8035  18.4438  18.4438  19.0346  21.6387  21.6387
    22.0595  22.9226

          k = 0.1890 0.1890 0.2835 (  3992 PWs)   bands (ev):

   -66.7670 -36.3390 -32.8731 -32.8567 -32.8475 -12.7189 -12.5651 -12.5580
    15.0604  17.0404  17.1724  18.2895  18.2971  18.6599  21.4806  21.7628
    22.2052  22.4294

          k = 0.1890 0.1890 0.3781 (  3994 PWs)   bands (ev):

   -66.7655 -36.3243 -32.8857 -32.8543 -32.8519 -12.8452 -12.5502 -12.5479
    15.7677  17.2275  17.3018  18.1476  18.3550  18.5734  21.3115  21.4952
    21.6485  23.1003

          k = 0.1890 0.1890 0.4726 (  3986 PWs)   bands (ev):

   -66.7645 -36.3156 -32.8932 -32.8545 -32.8528 -12.9196 -12.5455 -12.5374
    16.3193  16.9425  17.5035  18.0284  18.5093  18.8325  21.0384  21.2059
    21.3397  23.5001

          k = 0.1890 0.2835 0.2835 (  3994 PWs)   bands (ev):

   -66.7653 -36.3207 -32.8786 -32.8667 -32.8513 -12.7113 -12.6880 -12.5484
    15.6230  17.1102  17.6237  18.0624  18.1720  18.2697  21.5408  21.7674
    22.0692  23.0054

          k = 0.1890 0.2835 0.3781 (  3988 PWs)   bands (ev):

   -66.7637 -36.3038 -32.8902 -32.8724 -32.8518 -12.8242 -12.6826 -12.5360
    16.0845  17.0183  17.7674  17.9475  18.2864  18.4112  21.2857  21.5780
    21.9404  23.3127

          k = 0.1890 0.2835 0.4726 (  3991 PWs)   bands (ev):

   -66.7628 -36.2937 -32.8985 -32.8750 -32.8515 -12.8965 -12.6734 -12.5284
    16.3111  16.8596  17.7085  17.9027  18.4201  18.9921  20.9019  21.3763
    21.8279  23.5815

          k = 0.1890 0.3781 0.3781 (  3990 PWs)   bands (ev):

   -66.7622 -36.2847 -32.8963 -32.8884 -32.8504 -12.8108 -12.7975 -12.5238
    16.1471  16.8040  17.7451  17.8940  18.6573  18.7560  21.1344  21.4387
    22.2542  23.5014

          k = 0.1890 0.3781 0.4726 (  3993 PWs)   bands (ev):

   -66.7613 -36.2734 -32.9035 -32.8945 -32.8494 -12.8753 -12.7925 -12.5165
    16.0921  16.6838  17.6841  17.7518  18.9530  19.4837  20.8368  21.2427
    22.3465  23.7910

          k = 0.1890 0.4726 0.4726 (  4002 PWs)   bands (ev):

   -66.7603 -36.2613 -32.9069 -32.9058 -32.8482 -12.8635 -12.8617 -12.5094
    15.9341  16.5736  17.5842  17.6123  19.7290  19.9078  20.7246  20.9072
    22.5775  24.1298

          k = 0.2835 0.2835 0.2835 (  3998 PWs)   bands (ev):

   -66.7636 -36.3017 -32.8757 -32.8757 -32.8651 -12.6943 -12.6795 -12.6795
    16.2410  17.6265  17.6265  17.7101  17.9474  17.9474  21.5655  21.5655
    22.6178  22.6178

          k = 0.2835 0.2835 0.3781 (  3992 PWs)   bands (ev):

   -66.7621 -36.2842 -32.8906 -32.8730 -32.8710 -12.8074 -12.6716 -12.6691
    16.6517  17.3100  17.5992  17.8667  17.9865  18.2366  21.2902  21.3148
    22.4343  23.2065

          k = 0.2835 0.2835 0.4726 (  3990 PWs)   bands (ev):

   -66.7611 -36.2737 -32.9003 -32.8736 -32.8714 -12.8793 -12.6669 -12.6574
    16.7017  17.1056  17.5687  17.8290  18.2639  18.7848  20.8368  21.1617
    22.3698  23.6171

          k = 0.2835 0.3781 0.3781 (  3988 PWs)   bands (ev):

   -66.7605 -36.2661 -32.8932 -32.8890 -32.8710 -12.7949 -12.7892 -12.6588
    16.8094  17.1991  17.6621  17.8201  18.1689  18.4141  21.0793  21.0995
    22.7966  23.4395

          k = 0.2835 0.3781 0.4726 (  3992 PWs)   bands (ev):

   -66.7596 -36.2553 -32.9022 -32.8918 -32.8702 -12.8635 -12.7832 -12.6518
    16.6952  17.1068  17.6167  17.7317  18.5217  18.9167  20.7118  20.9824
    22.8715  23.8293

          k = 0.2835 0.4726 0.4726 (  4000 PWs)   bands (ev):

   -66.7587 -36.2443 -32.9036 -32.9030 -32.8688 -12.8545 -12.8537 -12.6458
    16.5874  17.0720  17.5485  17.5926  19.1247  19.1341  20.5026  20.8076
    23.0873  24.1732

          k = 0.3781 0.3781 0.3781 (  3999 PWs)   bands (ev):

   -66.7590 -36.2489 -32.8903 -32.8903 -32.8891 -12.7816 -12.7816 -12.7796
    17.1139  17.6289  17.6289  17.7644  18.1221  18.1221  20.8843  20.8843
    23.4454  23.4454

          k = 0.3781 0.3781 0.4726 (  4008 PWs)   bands (ev):

   -66.7581 -36.2386 -32.9011 -32.8898 -32.8886 -12.8527 -12.7771 -12.7716
    17.1179  17.3604  17.6842  17.8655  18.1955  18.5385  20.5912  20.7903
    23.4605  23.9368

          k = 0.3781 0.4726 0.4726 (  3994 PWs)   bands (ev):

   -66.7571 -36.2287 -32.9005 -32.9004 -32.8876 -12.8464 -12.8462 -12.7691
    17.2453  17.4752  17.5806  17.7466  18.4801  18.5210  20.4492  20.6404
    23.7264  24.2087

          k = 0.4726 0.4726 0.4726 (  3972 PWs)   bands (ev):

   -66.7562 -36.2193 -32.8990 -32.8987 -32.8987 -12.8420 -12.8420 -12.8408
    17.5348  17.7267  17.7267  18.0515  18.0515  18.1279  20.4368  20.4368
    24.2290  24.2290

     the Fermi energy is    20.1762 ev

!    total energy              =    -448.56478040 Ry
     estimated scf accuracy    <          1.2E-11 Ry
     smearing contrib. (-TS)   =      -0.00000196 Ry
     internal energy E=F+TS    =    -448.56477844 Ry

     The total energy is F=E-TS. E is the sum of the following terms:
     one-electron contribution =    -135.57975734 Ry
     hartree contribution      =      86.40554187 Ry
     xc contribution           =     -53.11243420 Ry
     ewald contribution        =    -270.12193088 Ry
     one-center paw contrib.   =     -76.15619789 Ry

     convergence has been achieved in  10 iterations

     negative rho (up, down):  9.328E-04 0.000E+00

     Forces acting on atoms (cartesian axes, Ry/au):

     atom    1 type  1   force =     0.00000000    0.00000000    0.00000000
     atom    2 type  2   force =     0.00000000    0.00000000    0.00000000

     Total force =     0.000000     Total SCF correction =     0.000000


     Computing stress (Cartesian axis) and pressure


     negative rho (up, down):  9.328E-04 0.000E+00
          total   stress  (Ry/bohr**3)                   (kbar)     P=      335.32
   0.00227948   0.00000000   0.00000000          335.32        0.00        0.00
   0.00000000   0.00227948   0.00000000            0.00      335.32        0.00
   0.00000000   0.00000000   0.00227948            0.00        0.00      335.32

     Energy error            =      4.1E-03 Ry
     Gradient error          =      0.0E+00 Ry/Bohr
     Cell gradient error     =      2.7E+01 kbar

     number of scf cycles    =   3
     number of bfgs steps    =   2

     enthalpy           old  =    -448.1857243427 Ry
     enthalpy           new  =    -448.1897934752 Ry

     CASE: enthalpy          _new < enthalpy          _old

     new trust radius        =       0.0063020339 bohr
     new conv_thr            =            1.0E-10 Ry

     new unit-cell volume =    151.23958 a.u.^3 (    22.41139 Ang^3 )
     density =      7.68439 g/cm^3

CELL_PARAMETERS (alat=  5.55330037)
   0.959409437   0.000000000   0.000000000
   0.000000000   0.959409437   0.000000000
   0.000000000   0.000000000   0.959409437

ATOMIC_POSITIONS (crystal)
Fe               0.5000000000        0.5000000000        0.5000000000
Ti               0.0000000000        0.0000000000        0.0000000000



     Writing config-only to output data dir ./TiFe.save/ :
     XML data file
     NEW-OLD atomic charge density approx. for the potential
     New effective cutoffs (rho, wfc): 1885.86  134.71

     Check: negative core charge=   -0.000002

     negative rho (up, down):  9.312E-04 0.000E+00

     total cpu time spent up to now is       64.2 secs

     per-process dynamical memory:   153.2 Mb

     Self-consistent Calculation

     iteration #  1     ecut=   124.00 Ry     beta= 0.70
     Davidson diagonalization with overlap
     ethr =  1.00E-06,  avg # of iterations =  4.1

     Threshold (ethr) on eigenvalues was too large:
     Diagonalizing with lowered threshold

     Davidson diagonalization with overlap
     ethr =  6.80E-09,  avg # of iterations =  5.8

     negative rho (up, down):  9.314E-04 0.000E+00

     total cpu time spent up to now is       66.6 secs

     total energy              =    -448.56198240 Ry
     estimated scf accuracy    <       0.00000215 Ry

     iteration #  2     ecut=   124.00 Ry     beta= 0.70
     Davidson diagonalization with overlap
     ethr =  7.70E-09,  avg # of iterations =  3.9

     negative rho (up, down):  9.313E-04 0.000E+00

     total cpu time spent up to now is       67.6 secs

     total energy              =    -448.56201842 Ry
     estimated scf accuracy    <       0.00004272 Ry

     iteration #  3     ecut=   124.00 Ry     beta= 0.70
     Davidson diagonalization with overlap
     ethr =  7.70E-09,  avg # of iterations =  4.1

     negative rho (up, down):  9.311E-04 0.000E+00

     total cpu time spent up to now is       68.7 secs

     total energy              =    -448.56202748 Ry
     estimated scf accuracy    <       0.00001065 Ry

     iteration #  4     ecut=   124.00 Ry     beta= 0.70
     Davidson diagonalization with overlap
     ethr =  7.70E-09,  avg # of iterations =  2.5

     negative rho (up, down):  9.314E-04 0.000E+00

     total cpu time spent up to now is       69.6 secs

     total energy              =    -448.56202838 Ry
     estimated scf accuracy    <       0.00000053 Ry

     iteration #  5     ecut=   124.00 Ry     beta= 0.70
     Davidson diagonalization with overlap
     ethr =  1.88E-09,  avg # of iterations =  2.4

     negative rho (up, down):  9.314E-04 0.000E+00

     total cpu time spent up to now is       70.6 secs

     total energy              =    -448.56202846 Ry
     estimated scf accuracy    <       0.00000002 Ry

     iteration #  6     ecut=   124.00 Ry     beta= 0.70
     Davidson diagonalization with overlap
     ethr =  6.48E-11,  avg # of iterations =  4.0

     negative rho (up, down):  9.314E-04 0.000E+00

[...]
     estimated scf accuracy    <       0.00003737 Ry

     iteration # 24     ecut=   124.00 Ry     beta= 0.70
     Davidson diagonalization with overlap
     ethr =  1.66E-08,  avg # of iterations =  1.0

     negative rho (up, down):  9.564E-04 0.000E+00

     total cpu time spent up to now is      112.7 secs

     total energy              =    -448.56169171 Ry
     estimated scf accuracy    <       0.00003097 Ry

     iteration # 25     ecut=   124.00 Ry     beta= 0.70
     Davidson diagonalization with overlap
     ethr =  1.66E-08,  avg # of iterations =  2.0

     negative rho (up, down):  9.551E-04 0.000E+00

     total cpu time spent up to now is      113.6 secs

     total energy              =    -448.56168936 Ry
     estimated scf accuracy    <       0.00001337 Ry

     iteration # 26     ecut=   124.00 Ry     beta= 0.70
     Davidson diagonalization with overlap
     ethr =  1.66E-08,  avg # of iterations =  3.2

     negative rho (up, down):  9.545E-04 0.000E+00

     total cpu time spent up to now is      114.6 secs

     total energy              =    -448.56168912 Ry
     estimated scf accuracy    <       0.00000324 Ry

     iteration # 27     ecut=   124.00 Ry     beta= 0.70
     Davidson diagonalization with overlap
     ethr =  1.16E-08,  avg # of iterations =  2.4

     negative rho (up, down):  9.541E-04 0.000E+00

     total cpu time spent up to now is      115.5 secs

     total energy              =    -448.56168932 Ry
     estimated scf accuracy    <       0.00000041 Ry

     iteration # 28     ecut=   124.00 Ry     beta= 0.70
     Davidson diagonalization with overlap
     ethr =  1.45E-09,  avg # of iterations =  3.9

     negative rho (up, down):  9.542E-04 0.000E+00

     total cpu time spent up to now is      116.5 secs

     total energy              =    -448.56168945 Ry
     estimated scf accuracy    <       0.00000003 Ry

     iteration # 29     ecut=   124.00 Ry     beta= 0.70
     Davidson diagonalization with overlap
     ethr =  9.69E-11,  avg # of iterations =  3.8

     negative rho (up, down):  9.542E-04 0.000E+00

     total cpu time spent up to now is      117.6 secs

     total energy              =    -448.56168946 Ry
     estimated scf accuracy    <          5.7E-10 Ry

     iteration # 30     ecut=   124.00 Ry     beta= 0.70
     Davidson diagonalization with overlap
     ethr =  2.02E-12,  avg # of iterations =  5.4

     negative rho (up, down):  9.542E-04 0.000E+00

     total cpu time spent up to now is      118.8 secs

     total energy              =    -448.56168946 Ry
     estimated scf accuracy    <          1.8E-09 Ry

     iteration # 31     ecut=   124.00 Ry     beta= 0.70
     Davidson diagonalization with overlap
     ethr =  2.02E-12,  avg # of iterations =  3.6

     negative rho (up, down):  9.542E-04 0.000E+00

     total cpu time spent up to now is      119.8 secs

     End of self-consistent calculation

          k = 0.0000 0.0000 0.0000 (  3575 PWs)   bands (ev):

   -66.5949 -36.1960 -32.6624 -32.6624 -32.6624 -12.2410 -12.2410 -12.2410
    12.5003  15.8440  15.8440  19.1892  19.1892  19.1892  21.9080  21.9080
    24.2073  24.2073

          k = 0.0000 0.0000 0.0948 (  3543 PWs)   bands (ev):

   -66.5944 -36.1933 -32.6655 -32.6617 -32.6617 -12.2864 -12.2386 -12.2386
    12.6950  15.9394  15.9622  19.1751  19.1751  19.2338  21.7768  21.9592
    23.9055  23.9055

          k = 0.0000 0.0000 0.1895 (  3543 PWs)   bands (ev):

   -66.5930 -36.1861 -32.6738 -32.6598 -32.6598 -12.4071 -12.2323 -12.2323
    13.2555  16.2194  16.2759  19.1439  19.1439  19.3592  21.3991  22.0820
    23.2075  23.2075

          k = 0.0000 0.0000 0.2843 (  3527 PWs)   bands (ev):

   -66.5912 -36.1767 -32.6845 -32.6574 -32.6574 -12.5625 -12.2240 -12.2240
    14.1117  16.6621  16.6621  19.1211  19.1211  19.5380  20.8249  22.1635
    22.4377  22.4377

          k = 0.0000 0.0000 0.3791 (  3523 PWs)   bands (ev):

   -66.5895 -36.1681 -32.6940 -32.6552 -32.6552 -12.7026 -12.2164 -12.2164
    15.1396  16.9197  17.2149  19.1250  19.1250  19.7210  20.1482  21.8055
    21.8055  22.0126

          k = 0.0000 0.0000 0.4739 (  3522 PWs)   bands (ev):

   -66.5885 -36.1631 -32.6996 -32.6538 -32.6538 -12.7848 -12.2119 -12.2119
    16.1221  16.8035  17.7186  19.1440  19.1440  19.5695  19.8409  21.4453
    21.4453  21.6957

          k = 0.0000 0.0948 0.0948 (  3539 PWs)   bands (ev):

   -66.5939 -36.1903 -32.6681 -32.6621 -32.6610 -12.2894 -12.2777 -12.2361
    12.8849  16.0385  16.0724  19.0735  19.1519  19.3528  21.7590  21.9231
    23.5720  23.6065

          k = 0.0000 0.0948 0.1895 (  3548 PWs)   bands (ev):

   -66.5925 -36.1821 -32.6763 -32.6618 -32.6592 -12.4036 -12.2750 -12.2294
    13.4299  16.2996  16.3897  18.9773  19.0967  19.4968  21.4683  22.0306
    22.9310  22.9601

          k = 0.0000 0.0948 0.2843 (  3534 PWs)   bands (ev):

   -66.5906 -36.1715 -32.6870 -32.6611 -32.6568 -12.5568 -12.2653 -12.2205
    14.2571  16.6796  16.8061  18.9293  19.0374  19.6000  20.9790  22.0275
    22.3439  22.3639

          k = 0.0000 0.0948 0.3791 (  3523 PWs)   bands (ev):

   -66.5889 -36.1618 -32.6966 -32.6605 -32.6546 -12.6951 -12.2562 -12.2124
    15.2390  16.9569  17.2805  18.9452  18.9827  19.6027  20.4283  21.5344
    21.9695  22.2361

          k = 0.0000 0.0948 0.4739 (  3523 PWs)   bands (ev):

   -66.5879 -36.1561 -32.7022 -32.6602 -32.6533 -12.7763 -12.2507 -12.2075
    16.1626  16.8354  17.7264  18.8965  19.0019  19.5255  20.0461  21.2036
    21.8154  22.0462

          k = 0.0000 0.1895 0.1895 (  3551 PWs)   bands (ev):

   -66.5911 -36.1714 -32.6836 -32.6661 -32.6574 -12.4077 -12.3749 -12.2215
    13.9239  16.4840  16.7336  18.7655  18.9931  19.5968  21.5369  21.9778
    22.3267  22.5673

          k = 0.0000 0.1895 0.2843 (  3534 PWs)   bands (ev):

   -66.5893 -36.1575 -32.6940 -32.6708 -32.6551 -12.5420 -12.3743 -12.2111
    14.6504  16.7132  17.2037  18.6212  18.9041  19.5069  21.3159  21.7087
    22.1743  22.3562

          k = 0.0000 0.1895 0.3791 (  3534 PWs)   bands (ev):

   -66.5876 -36.1448 -32.7037 -32.6748 -32.6530 -12.6750 -12.3617 -12.2015
    15.4625  16.8550  17.6652  18.5827  18.8948  19.2484  20.9495  21.3224
    22.3682  22.3892

          k = 0.0000 0.1895 0.4739 (  3524 PWs)   bands (ev):

   -66.5866 -36.1372 -32.7094 -32.6772 -32.6518 -12.7533 -12.3540 -12.1958
    16.1501  16.7534  17.9747  18.6544  18.9659  18.9742  20.7513  21.0467
    22.4450  22.5138

          k = 0.0000 0.2843 0.2843 (  3533 PWs)   bands (ev):

   -66.5875 -36.1392 -32.7038 -32.6828 -32.6530 -12.5378 -12.4995 -12.1987
    15.1668  16.7145  17.7582  18.3705  18.8949  19.1834  21.4514  21.5907
    22.0731  22.5687

          k = 0.0000 0.2843 0.3791 (  3526 PWs)   bands (ev):

   -66.5858 -36.1223 -32.7132 -32.6933 -32.6510 -12.6488 -12.4976 -12.1873
    15.6366  16.6409  18.2412  18.3014  18.7893  19.1405  21.2510  21.5730
    22.3035  22.9060

          k = 0.0000 0.2843 0.4739 (  3527 PWs)   bands (ev):

   -66.5848 -36.1123 -32.7190 -32.6994 -32.6498 -12.7231 -12.4871 -12.1805
    15.9344  16.5222  18.2622  18.4678  18.6038  19.5960  20.9843  21.5068
    22.6146  23.2084

          k = 0.0000 0.3791 0.3791 (  3526 PWs)   bands (ev):

   -66.5842 -36.1015 -32.7224 -32.7099 -32.6491 -12.6336 -12.6115 -12.1741
    15.6760  16.4285  18.0181  18.3712  19.0257  19.6699  21.4405  21.9962
    22.1323  23.3941

          k = 0.0000 0.3791 0.4739 (  3520 PWs)   bands (ev):

   -66.5832 -36.0891 -32.7280 -32.7197 -32.6480 -12.6953 -12.6075 -12.1663
    15.6561  16.3006  17.9584  18.0813  19.4750  20.4146  21.1836  22.0825
    22.4259  23.7609

          k = 0.0000 0.4739 0.4739 (  3514 PWs)   bands (ev):

   -66.5822 -36.0753 -32.7335 -32.7317 -32.6469 -12.6800 -12.6769 -12.1578
    15.4816  16.1731  17.8139  17.8554  20.2524  20.8600  21.7212  21.9393
    22.3967  24.0884

          k = 0.0948 0.0948 0.0948 (  3551 PWs)   bands (ev):

   -66.5934 -36.1869 -32.6674 -32.6674 -32.6591 -12.2911 -12.2753 -12.2753
    13.0707  16.1583  16.1583  19.0475  19.0475  19.4508  21.8247  21.8247
    23.0740  23.8816

          k = 0.0948 0.0948 0.1895 (  3537 PWs)   bands (ev):

   -66.5920 -36.1779 -32.6771 -32.6655 -32.6586 -12.3998 -12.2749 -12.2689
    13.6030  16.4085  16.4736  18.9154  18.9795  19.5555  21.5413  21.9832
    22.5093  23.1824

          k = 0.0948 0.0948 0.2843 (  3541 PWs)   bands (ev):

   -66.5901 -36.1662 -32.6886 -32.6630 -32.6589 -12.5512 -12.2630 -12.2604
    14.4059  16.7981  16.8507  18.8520  18.8881  19.5503  21.1163  21.9488
    22.2954  22.4274

          k = 0.0948 0.0948 0.3791 (  3530 PWs)   bands (ev):

   -66.5884 -36.1556 -32.6987 -32.6607 -32.6595 -12.6879 -12.2527 -12.2517
    15.3486  17.0677  17.2713  18.7737  18.9014  19.4387  20.6478  21.6485
    21.8256  22.4469

          k = 0.0948 0.0948 0.4739 (  3520 PWs)   bands (ev):

   -66.5874 -36.1492 -32.7046 -32.6599 -32.6593 -12.7682 -12.2481 -12.2450
    16.2246  16.9049  17.6870  18.6270  19.0570  19.3234  20.3189  21.3529
    21.4936  22.5935

          k = 0.0948 0.1895 0.1895 (  3544 PWs)   bands (ev):

   -66.5906 -36.1668 -32.6828 -32.6700 -32.6591 -12.4025 -12.3724 -12.2632
    14.0924  16.6138  16.7909  18.7230  18.8557  19.5183  21.6238  21.9422
    22.1815  22.8431

          k = 0.0948 0.1895 0.2843 (  3536 PWs)   bands (ev):

   -66.5888 -36.1521 -32.6939 -32.6723 -32.6594 -12.5366 -12.3707 -12.2520
    14.8087  16.8553  17.2274  18.5724  18.7552  19.2969  21.4301  21.8580
    22.2078  22.4389

          k = 0.0948 0.1895 0.3791 (  3528 PWs)   bands (ev):

   -66.5871 -36.1387 -32.7047 -32.6748 -32.6588 -12.6687 -12.3580 -12.2415
    15.6008  17.0084  17.6051  18.4951  18.7688  19.0700  21.1311  21.4683
    22.0642  22.7857

          k = 0.0948 0.1895 0.4739 (  3520 PWs)   bands (ev):

   -66.5861 -36.1308 -32.7109 -32.6766 -32.6580 -12.7465 -12.3503 -12.2352
    16.2651  16.8849  17.8376  18.4402  18.8680  19.0517  20.9284  21.1406
    21.8367  23.2741

          k = 0.0948 0.2843 0.2843 (  3533 PWs)   bands (ev):

   -66.5870 -36.1336 -32.7029 -32.6841 -32.6584 -12.5315 -12.4970 -12.2393
    15.3351  16.8630  17.7676  18.3290  18.7240  18.9341  21.5928  21.7699
    22.0547  22.7462

          k = 0.0948 0.2843 0.3791 (  3519 PWs)   bands (ev):

   -66.5853 -36.1166 -32.7129 -32.6935 -32.6569 -12.6438 -12.4942 -12.2275
    15.8009  16.7899  18.1655  18.2485  18.6679  18.9645  21.3506  21.6772
    22.1515  23.2517

          k = 0.0948 0.2843 0.4739 (  3516 PWs)   bands (ev):

   -66.5843 -36.1064 -32.7195 -32.6987 -32.6560 -12.7180 -12.4840 -12.2204
    16.0806  16.6692  18.1637  18.2515  18.6778  19.4702  21.0334  21.6285
    22.0905  23.8226

          k = 0.0948 0.3791 0.3791 (  3523 PWs)   bands (ev):

   -66.5837 -36.0961 -32.7215 -32.7101 -32.6552 -12.6289 -12.6091 -12.2145
    15.8399  16.5776  17.9850  18.2691  18.9798  19.4626  21.3748  21.9890
    22.1115  23.7853

          k = 0.0948 0.3791 0.4739 (  3524 PWs)   bands (ev):

   -66.5827 -36.0838 -32.7275 -32.7190 -32.6541 -12.6918 -12.6049 -12.2068
    15.8097  16.4520  17.9242  18.0252  19.3986  20.2102  21.1130  21.9614
    22.2274  24.0361

          k = 0.0948 0.4739 0.4739 (  3524 PWs)   bands (ev):

   -66.5817 -36.0703 -32.7325 -32.7309 -32.6530 -12.6774 -12.6747 -12.1987
    15.6372  16.3259  17.7917  17.8283  20.1980  20.7376  21.3568  21.5108
    22.4823  24.2943

          k = 0.1895 0.1895 0.1895 (  3542 PWs)   bands (ev):

   -66.5892 -36.1542 -32.6807 -32.6807 -32.6631 -12.3966 -12.3658 -12.3658
    14.5652  16.9535  16.9535  18.6107  18.6107  19.2104  21.8373  21.8373
    22.2626  23.1346

          k = 0.1895 0.1895 0.2843 (  3521 PWs)   bands (ev):

   -66.5874 -36.1377 -32.6948 -32.6780 -32.6681 -12.5224 -12.3643 -12.3571
    15.2405  17.1924  17.3300  18.4554  18.4631  18.8309  21.6768  21.9656
    22.4092  22.6376

          k = 0.1895 0.1895 0.3791 (  3524 PWs)   bands (ev):

   -66.5857 -36.1225 -32.7077 -32.6755 -32.6729 -12.6520 -12.3492 -12.3466
    15.9452  17.3917  17.4558  18.3132  18.5239  18.7434  21.5049  21.6985
    21.8466  23.3171

          k = 0.1895 0.1895 0.4739 (  3515 PWs)   bands (ev):

   -66.5847 -36.1135 -32.7151 -32.6758 -32.6740 -12.7283 -12.3444 -12.3358
    16.4899  17.1096  17.6583  18.1942  18.6812  19.0096  21.2387  21.3967
    21.5351  23.7180

          k = 0.1895 0.2843 0.2843 (  3531 PWs)   bands (ev):

   -66.5856 -36.1187 -32.7006 -32.6881 -32.6723 -12.5146 -12.4905 -12.3472
    15.8027  17.2658  17.7855  18.2258  18.3380  18.4371  21.7406  21.9706
    22.2701  23.2212

          k = 0.1895 0.2843 0.3791 (  3520 PWs)   bands (ev):

   -66.5840 -36.1012 -32.7125 -32.6940 -32.6729 -12.6304 -12.4849 -12.3345
    16.2557  17.1769  17.9282  18.1113  18.4575  18.5841  21.4841  21.7800
    22.1398  23.5278

          k = 0.1895 0.2843 0.4739 (  3516 PWs)   bands (ev):

   -66.5830 -36.0907 -32.7209 -32.6969 -32.6726 -12.7045 -12.4755 -12.3267
    16.4717  17.0215  17.8670  18.0671  18.5955  19.1751  21.0990  21.5754
    22.0254  23.8002

          k = 0.1895 0.3791 0.3791 (  3514 PWs)   bands (ev):

   -66.5823 -36.0814 -32.7189 -32.7105 -32.6715 -12.6165 -12.6028 -12.3220
    16.3058  16.9631  17.9042  18.0559  18.8342  18.9401  21.3312  21.6415
    22.4571  23.7183

          k = 0.1895 0.3791 0.4739 (  3517 PWs)   bands (ev):

   -66.5814 -36.0696 -32.7263 -32.7170 -32.6705 -12.6826 -12.5977 -12.3145
    16.2438  16.8427  17.8427  17.9123  19.1359  19.6746  21.0331  21.4424
    22.5506  24.0114

          k = 0.1895 0.4739 0.4739 (  3517 PWs)   bands (ev):

   -66.5804 -36.0570 -32.7298 -32.7287 -32.6692 -12.6705 -12.6686 -12.3073
    16.0819  16.7310  17.7419  17.7706  19.9185  20.1038  20.9216  21.1031
    22.7848  24.3537

          k = 0.2843 0.2843 0.2843 (  3530 PWs)   bands (ev):

   -66.5838 -36.0990 -32.6976 -32.6976 -32.6863 -12.4970 -12.4818 -12.4818
    16.4244  17.7868  17.7868  17.8711  18.1119  18.1119  21.7668  21.7668
    22.8244  22.8244

          k = 0.2843 0.2843 0.3791 (  3525 PWs)   bands (ev):

   -66.5822 -36.0808 -32.7129 -32.6949 -32.6926 -12.6131 -12.4739 -12.4711
    16.8256  17.4703  17.7573  18.0330  18.1548  18.4071  21.4904  21.5130
    22.6386  23.4199

          k = 0.2843 0.2843 0.4739 (  3522 PWs)   bands (ev):

   -66.5812 -36.0700 -32.7229 -32.6954 -32.6932 -12.6869 -12.4691 -12.4589
    16.8624  17.2671  17.7258  17.9961  18.4400  18.9643  21.0336  21.3578
    22.5732  23.8359

          k = 0.2843 0.3791 0.3791 (  3526 PWs)   bands (ev):

   -66.5806 -36.0621 -32.7157 -32.7112 -32.6927 -12.6003 -12.5945 -12.4606
    16.9704  17.3621  17.8214  17.9850  18.3453  18.5889  21.2757  21.2976
    23.0052  23.6553

          k = 0.2843 0.3791 0.4739 (  3514 PWs)   bands (ev):

   -66.5796 -36.0509 -32.7249 -32.7142 -32.6919 -12.6706 -12.5882 -12.4535
    16.8505  17.2682  17.7756  17.8960  18.7019  19.0992  20.9065  21.1777
    23.0810  24.0499

          k = 0.2843 0.4739 0.4739 (  3516 PWs)   bands (ev):

   -66.5787 -36.0394 -32.7264 -32.7258 -32.6905 -12.6614 -12.6606 -12.4473
    16.7405  17.2344  17.7074  17.7530  19.3109  19.3186  20.6944  21.0021
    23.2997  24.3975

          k = 0.3791 0.3791 0.3791 (  3533 PWs)   bands (ev):

   -66.5790 -36.0442 -32.7127 -32.7127 -32.7114 -12.5868 -12.5868 -12.5845
    17.2693  17.7891  17.7891  17.9464  18.2935  18.2935  21.0793  21.0793
    23.6613  23.6613

          k = 0.3791 0.3791 0.4739 (  3510 PWs)   bands (ev):

   -66.5780 -36.0336 -32.7238 -32.7122 -32.7109 -12.6596 -12.5822 -12.5763
    17.2740  17.5217  17.8458  18.0337  18.3742  18.7153  20.7837  20.9839
    23.6766  24.1585

          k = 0.3791 0.4739 0.4739 (  3514 PWs)   bands (ev):

   -66.5771 -36.0232 -32.7232 -32.7231 -32.7099 -12.6532 -12.6530 -12.5740
    17.4031  17.6392  17.7419  17.9133  18.6579  18.6977  20.6398  20.8329
    23.9456  24.4334

          k = 0.4739 0.4739 0.4739 (  3514 PWs)   bands (ev):

   -66.5761 -36.0136 -32.7216 -32.7214 -32.7214 -12.6488 -12.6488 -12.6476
    17.6971  17.8926  17.8926  18.2203  18.2203  18.3009  20.6272  20.6272
    24.4540  24.4540

     the Fermi energy is    20.3572 ev

!    total energy              =    -448.56168946 Ry
     estimated scf accuracy    <          4.2E-11 Ry
     smearing contrib. (-TS)   =       0.00002254 Ry
     internal energy E=F+TS    =    -448.56171200 Ry

     The total energy is F=E-TS. E is the sum of the following terms:
     one-electron contribution =    -134.46489324 Ry
     hartree contribution      =      86.04429618 Ry
     xc contribution           =     -53.12923130 Ry
     ewald contribution        =    -270.85554319 Ry
     one-center paw contrib.   =     -76.15634045 Ry

     convergence has been achieved in  31 iterations

     negative rho (up, down):  9.542E-04 0.000E+00

     Forces acting on atoms (cartesian axes, Ry/au):

     atom    1 type  1   force =     0.00000000    0.00000000    0.00000000
     atom    2 type  2   force =     0.00000000    0.00000000    0.00000000

     Total force =     0.000000     Total SCF correction =     0.000000


     Computing stress (Cartesian axis) and pressure


     negative rho (up, down):  9.542E-04 0.000E+00
          total   stress  (Ry/bohr**3)                   (kbar)     P=      360.89
   0.00245330   0.00000000   0.00000000          360.89        0.00        0.00
   0.00000000   0.00245330   0.00000000            0.00      360.89        0.00
   0.00000000   0.00000000   0.00245330            0.00        0.00      360.89


     Writing all to output data dir ./TiFe.save/ :
     XML data file, charge density, pseudopotentials, collected wavefunctions

     init_run     :      2.20s CPU      2.28s WALL (       2 calls)
     electrons    :    102.77s CPU    107.91s WALL (       6 calls)
     update_pot   :      0.32s CPU      0.34s WALL (       4 calls)
     forces       :      1.34s CPU      1.46s WALL (       6 calls)
     stress       :      7.95s CPU      8.28s WALL (       6 calls)

     Called by init_run:
     wfcinit      :      0.57s CPU      0.58s WALL (       2 calls)
     potinit      :      0.44s CPU      0.45s WALL (       2 calls)
     hinit0       :      0.89s CPU      0.90s WALL (       2 calls)

     Called by electrons:
     c_bands      :     62.88s CPU     64.32s WALL (     102 calls)
     sum_band     :     21.77s CPU     23.61s WALL (     102 calls)
     v_of_rho     :      2.05s CPU      2.24s WALL (     106 calls)
     newd         :     11.37s CPU     12.93s WALL (     106 calls)
     PAW_pot      :      5.49s CPU      5.57s WALL (     110 calls)
     mix_rho      :      0.22s CPU      0.25s WALL (     102 calls)

     Called by c_bands:
     init_us_2    :      1.67s CPU      1.71s WALL (   12432 calls)
     cegterg      :     60.04s CPU     61.40s WALL (    5712 calls)

     Called by *egterg:
     cdiaghg      :      7.39s CPU      7.55s WALL (   23651 calls)
     h_psi        :     45.55s CPU     46.62s WALL (   24099 calls)
     s_psi        :      1.17s CPU      1.20s WALL (   24099 calls)
     g_psi        :      0.28s CPU      0.29s WALL (   18275 calls)

     Called by h_psi:
     h_psi:calbec :      1.68s CPU      1.72s WALL (   24099 calls)
     vloc_psi     :     42.46s CPU     43.46s WALL (   24099 calls)
     add_vuspsi   :      1.20s CPU      1.23s WALL (   24099 calls)

     General routines
     calbec       :      2.72s CPU      2.79s WALL (   35747 calls)
     fft          :      1.80s CPU      2.05s WALL (    1522 calls)
     ffts         :      0.30s CPU      0.31s WALL (     208 calls)
     fftw         :     38.18s CPU     39.03s WALL (  663282 calls)
     interpolate  :      0.38s CPU      0.41s WALL (     106 calls)

     Parallel routines

     PWSCF        :    115.61s CPU    121.52s WALL


   This run was terminated on:  15:48:49  25Oct2025            

=------------------------------------------------------------------------------=
   JOB DONE.
=------------------------------------------------------------------------------=
