
     Program PWSCF v.7.4 starts on 25Oct2025 at 15:33:41 

     This program is part of the open-source Quantum ESPRESSO suite
     for quantum simulation of materials; please cite
         "P. Giannozzi et al., J. Phys.:Condens. Matter 21 395502 (2009);
         "P. Giannozzi et al., J. Phys.:Condens. Matter 29 465901 (2017);
         "P. Giannozzi et al., J. Chem. Phys. 152 154105 (2020);
          URL http://www.quantum-espresso.org", 
     in publications or presentations arising from this work. More details at
     http://www.quantum-espresso.org/quote

     Parallel version (MPI & OpenMP), running on       8 processor cores
     Number of MPI processes:                 8
     Threads/MPI process:                     1

     MPI processes distributed on     1 nodes
     222800 MiB available memory on the printing compute node when the environment starts

     Reading input from TiFe_relaxed4.in

     Current dimensions of program PWSCF are:
     Max number of different atomic species (ntypx) = 10
     Max number of k-points (npk) =  40000
     Max angular momentum in pseudopotentials (lmaxx) =  4
     file Fe.pbe-spn-kjpaw_psl.0.2.1.UPF: wavefunction(s)  3D renormalized

     IMPORTANT: XC functional enforced from input :
     Exchange-correlation= PBE
                           (   1   4   3   4   0   0   0)
     Any further DFT definition will be discarded
     Please, verify this is what you really want

     Message from routine setup:
     using ibrav=0 with symmetry is DISCOURAGED, use correct ibrav instead

     R & G space division:  proc/nbgrp/npool/nimage =       8
     Subspace diagonalization in iterative solution of the eigenvalue problem:
     a serial algorithm will be used


     Parallelization info
     --------------------
     sticks:   dense  smooth     PW     G-vecs:    dense   smooth      PW
     Min         532     151     43                26154     3989     617
     Max         533     152     44                26155     3993     620
     Sum        4257    1209    349               209233    31919    4945

     Using Slab Decomposition



     bravais-lattice index     =            0
     lattice parameter (alat)  =       5.5533  a.u.
     unit-cell volume          =     171.2590 (a.u.)^3
     number of atoms/cell      =            2
     number of atomic types    =            2
     number of electrons       =        28.00
     number of Kohn-Sham states=           18
     kinetic-energy cutoff     =     124.0000  Ry
     charge density cutoff     =    1736.0000  Ry
     scf convergence threshold =      1.0E-08
     mixing beta               =       0.7000
     number of iterations used =            8  plain     mixing
     energy convergence thresh.=      1.0E-04
     force convergence thresh. =      1.0E-03
     press convergence thresh. =      5.0E-01
     Exchange-correlation= PBE
                           (   1   4   3   4   0   0   0)
     nstep                     =           50


     celldm(1)=   5.553300  celldm(2)=   0.000000  celldm(3)=   0.000000
     celldm(4)=   0.000000  celldm(5)=   0.000000  celldm(6)=   0.000000

     crystal axes: (cart. coord. in units of alat)
               a(1) = (   1.000000   0.000000   0.000000 )  
               a(2) = (   0.000000   1.000000   0.000000 )  
               a(3) = (   0.000000   0.000000   1.000000 )  

     reciprocal axes: (cart. coord. in units 2 pi/alat)
               b(1) = (  1.000000  0.000000  0.000000 )  
               b(2) = (  0.000000  1.000000  0.000000 )  
               b(3) = (  0.000000  0.000000  1.000000 )  


     PseudoPot. # 1 for Fe read from file:
     ../../pseudos/Fe.pbe-spn-kjpaw_psl.0.2.1.UPF
     MD5 check sum: e86618425769142926afa95317d90200
     Pseudo is Projector augmented-wave + core cor, Zval = 16.0
     Generated using "atomic" code by A. Dal Corso  v.5.0.99 svn rev. 10869
     Shape of augmentation charge: PSQ
     Using radial grid of 1191 points,  6 beta functions with: 
                l(1) =   0
                l(2) =   0
                l(3) =   1
                l(4) =   1
                l(5) =   2
                l(6) =   2
     Q(r) pseudized with 0 coefficients 


     PseudoPot. # 2 for Ti read from file:
     ../../pseudos/ti_pbe_v1.4.uspp.F.UPF
     MD5 check sum: 88a00a6731bd790ddea75d31a80cb452
     Pseudo is Ultrasoft + core correction, Zval = 12.0
     Generated by new atomic code, or converted to UPF format
     Using radial grid of  851 points,  6 beta functions with: 
                l(1) =   0
                l(2) =   0
                l(3) =   1
                l(4) =   1
                l(5) =   2
                l(6) =   2
     Q(r) pseudized with  6 coefficients,  rinner =    1.000   1.000   1.000
                                                       1.000   1.000

     atomic species   valence    mass     pseudopotential
     Fe               16.00    55.84500     Fe( 1.00)
     Ti               12.00    47.86700     Ti( 1.00)

     48 Sym. Ops., with inversion, found



   Cartesian axes

     site n.     atom                  positions (alat units)
         1        Fe     tau(   1) = (   0.5000000   0.5000000   0.5000000  )
         2        Ti     tau(   2) = (   0.0000000   0.0000000   0.0000000  )

     number of k points=    56  Marzari-Vanderbilt smearing, width (Ry)=  0.0050
                       cart. coord. in units 2pi/alat
        k(    1) = (   0.0000000   0.0000000   0.0000000), wk =   0.0015026
        k(    2) = (   0.0000000   0.0000000   0.0909091), wk =   0.0090158
        k(    3) = (   0.0000000   0.0000000   0.1818182), wk =   0.0090158
        k(    4) = (   0.0000000   0.0000000   0.2727273), wk =   0.0090158
        k(    5) = (   0.0000000   0.0000000   0.3636364), wk =   0.0090158
        k(    6) = (   0.0000000   0.0000000   0.4545455), wk =   0.0090158
        k(    7) = (   0.0000000   0.0909091   0.0909091), wk =   0.0180316
        k(    8) = (   0.0000000   0.0909091   0.1818182), wk =   0.0360631
        k(    9) = (   0.0000000   0.0909091   0.2727273), wk =   0.0360631
        k(   10) = (   0.0000000   0.0909091   0.3636364), wk =   0.0360631
        k(   11) = (   0.0000000   0.0909091   0.4545455), wk =   0.0360631
        k(   12) = (   0.0000000   0.1818182   0.1818182), wk =   0.0180316
        k(   13) = (   0.0000000   0.1818182   0.2727273), wk =   0.0360631
        k(   14) = (   0.0000000   0.1818182   0.3636364), wk =   0.0360631
        k(   15) = (   0.0000000   0.1818182   0.4545455), wk =   0.0360631
        k(   16) = (   0.0000000   0.2727273   0.2727273), wk =   0.0180316
        k(   17) = (   0.0000000   0.2727273   0.3636364), wk =   0.0360631
        k(   18) = (   0.0000000   0.2727273   0.4545455), wk =   0.0360631
        k(   19) = (   0.0000000   0.3636364   0.3636364), wk =   0.0180316
        k(   20) = (   0.0000000   0.3636364   0.4545455), wk =   0.0360631
        k(   21) = (   0.0000000   0.4545455   0.4545455), wk =   0.0180316
        k(   22) = (   0.0909091   0.0909091   0.0909091), wk =   0.0120210
        k(   23) = (   0.0909091   0.0909091   0.1818182), wk =   0.0360631
        k(   24) = (   0.0909091   0.0909091   0.2727273), wk =   0.0360631
        k(   25) = (   0.0909091   0.0909091   0.3636364), wk =   0.0360631
        k(   26) = (   0.0909091   0.0909091   0.4545455), wk =   0.0360631
        k(   27) = (   0.0909091   0.1818182   0.1818182), wk =   0.0360631
        k(   28) = (   0.0909091   0.1818182   0.2727273), wk =   0.0721262
        k(   29) = (   0.0909091   0.1818182   0.3636364), wk =   0.0721262
        k(   30) = (   0.0909091   0.1818182   0.4545455), wk =   0.0721262
        k(   31) = (   0.0909091   0.2727273   0.2727273), wk =   0.0360631
        k(   32) = (   0.0909091   0.2727273   0.3636364), wk =   0.0721262
        k(   33) = (   0.0909091   0.2727273   0.4545455), wk =   0.0721262
        k(   34) = (   0.0909091   0.3636364   0.3636364), wk =   0.0360631
        k(   35) = (   0.0909091   0.3636364   0.4545455), wk =   0.0721262
        k(   36) = (   0.0909091   0.4545455   0.4545455), wk =   0.0360631
        k(   37) = (   0.1818182   0.1818182   0.1818182), wk =   0.0120210
        k(   38) = (   0.1818182   0.1818182   0.2727273), wk =   0.0360631
        k(   39) = (   0.1818182   0.1818182   0.3636364), wk =   0.0360631
        k(   40) = (   0.1818182   0.1818182   0.4545455), wk =   0.0360631
        k(   41) = (   0.1818182   0.2727273   0.2727273), wk =   0.0360631
        k(   42) = (   0.1818182   0.2727273   0.3636364), wk =   0.0721262
        k(   43) = (   0.1818182   0.2727273   0.4545455), wk =   0.0721262
        k(   44) = (   0.1818182   0.3636364   0.3636364), wk =   0.0360631
        k(   45) = (   0.1818182   0.3636364   0.4545455), wk =   0.0721262
        k(   46) = (   0.1818182   0.4545455   0.4545455), wk =   0.0360631
        k(   47) = (   0.2727273   0.2727273   0.2727273), wk =   0.0120210
        k(   48) = (   0.2727273   0.2727273   0.3636364), wk =   0.0360631
        k(   49) = (   0.2727273   0.2727273   0.4545455), wk =   0.0360631
        k(   50) = (   0.2727273   0.3636364   0.3636364), wk =   0.0360631
        k(   51) = (   0.2727273   0.3636364   0.4545455), wk =   0.0721262
        k(   52) = (   0.2727273   0.4545455   0.4545455), wk =   0.0360631
        k(   53) = (   0.3636364   0.3636364   0.3636364), wk =   0.0120210
        k(   54) = (   0.3636364   0.3636364   0.4545455), wk =   0.0360631
        k(   55) = (   0.3636364   0.4545455   0.4545455), wk =   0.0360631
        k(   56) = (   0.4545455   0.4545455   0.4545455), wk =   0.0120210

     Dense  grid:   209233 G-vectors     FFT dimensions: (  75,  75,  75)

     Smooth grid:    31919 G-vectors     FFT dimensions: (  40,  40,  40)

     Estimated max dynamical RAM per process >     117.03 MB

     Estimated total dynamical RAM >     936.25 MB

     Check: negative core charge=   -0.000002

     Initial potential from superposition of free atoms

     starting charge      26.9995, renormalised to      28.0000

     negative rho (up, down):  1.347E-03 0.000E+00
     Starting wfcs are   23 randomized atomic wfcs
     Checking if some PAW data can be deallocated... 

     total cpu time spent up to now is        1.4 secs

     per-process dynamical memory:   142.7 Mb

     Self-consistent Calculation

     iteration #  1     ecut=   124.00 Ry     beta= 0.70
     Davidson diagonalization with overlap
     ethr =  1.00E-02,  avg # of iterations =  2.1

     negative rho (up, down):  7.937E-05 0.000E+00

     total cpu time spent up to now is        2.5 secs

     total energy              =    -434.89047275 Ry
     estimated scf accuracy    <      17.46535633 Ry

     iteration #  2     ecut=   124.00 Ry     beta= 0.70
     Davidson diagonalization with overlap
     ethr =  1.00E-02,  avg # of iterations =  6.0

     negative rho (up, down):  2.353E-05 0.000E+00

     total cpu time spent up to now is        4.0 secs

     total energy              =    -448.51249463 Ry
     estimated scf accuracy    <      66.10195194 Ry

     iteration #  3     ecut=   124.00 Ry     beta= 0.70
     Davidson diagonalization with overlap
     ethr =  1.00E-02,  avg # of iterations =  3.1

     negative rho (up, down):  2.377E-04 0.000E+00

     total cpu time spent up to now is        5.2 secs

     total energy              =    -448.59203340 Ry
     estimated scf accuracy    <      16.77106202 Ry

     iteration #  4     ecut=   124.00 Ry     beta= 0.70
     Davidson diagonalization with overlap
     ethr =  1.00E-02,  avg # of iterations =  2.2

     negative rho (up, down):  2.766E-04 0.000E+00

     total cpu time spent up to now is        6.2 secs

     total energy              =    -449.11252552 Ry
     estimated scf accuracy    <       4.68111793 Ry

     iteration #  5     ecut=   124.00 Ry     beta= 0.70
     Davidson diagonalization with overlap
     ethr =  1.00E-02,  avg # of iterations =  1.0

     negative rho (up, down):  3.285E-04 0.000E+00

     total cpu time spent up to now is        7.1 secs

     total energy              =    -449.11683000 Ry
     estimated scf accuracy    <       4.27451567 Ry

     iteration #  6     ecut=   124.00 Ry     beta= 0.70
     Davidson diagonalization with overlap
     ethr =  1.00E-02,  avg # of iterations =  1.0

     negative rho (up, down):  1.118E-03 0.000E+00

     total cpu time spent up to now is        8.0 secs

     total energy              =    -447.89068457 Ry
     estimated scf accuracy    <       4.50163493 Ry

     iteration #  7     ecut=   124.00 Ry     beta= 0.70
     Davidson diagonalization with overlap
     ethr =  1.00E-02,  avg # of iterations =  3.4

     negative rho (up, down):  1.015E-03 0.000E+00

     total cpu time spent up to now is        9.0 secs

     total energy              =    -448.58840447 Ry
     estimated scf accuracy    <       3.89651472 Ry

     iteration #  8     ecut=   124.00 Ry     beta= 0.70
     Davidson diagonalization with overlap
     ethr =  1.00E-02,  avg # of iterations =  1.0

     negative rho (up, down):  7.976E-04 0.000E+00

     total cpu time spent up to now is        9.9 secs

     total energy              =    -448.43997417 Ry
     estimated scf accuracy    <       1.27715295 Ry

     iteration #  9     ecut=   124.00 Ry     beta= 0.70
     Davidson diagonalization with overlap
     ethr =  4.56E-03,  avg # of iterations =  1.9

     negative rho (up, down):  7.977E-04 0.000E+00

     total cpu time spent up to now is       10.8 secs

     total energy              =    -448.60539805 Ry
     estimated scf accuracy    <       0.26863249 Ry

     iteration # 10     ecut=   124.00 Ry     beta= 0.70
     Davidson diagonalization with overlap
     ethr =  9.59E-04,  avg # of iterations =  1.3

     negative rho (up, down):  8.075E-04 0.000E+00

     total cpu time spent up to now is       11.7 secs

     total energy              =    -448.61289738 Ry
     estimated scf accuracy    <       0.28159432 Ry

     iteration # 11     ecut=   124.00 Ry     beta= 0.70
     Davidson diagonalization with overlap
     ethr =  9.59E-04,  avg # of iterations =  1.0

     negative rho (up, down):  7.617E-04 0.000E+00

     total cpu time spent up to now is       12.6 secs

     total energy              =    -448.67957078 Ry
     estimated scf accuracy    <       0.34549008 Ry

     iteration # 12     ecut=   124.00 Ry     beta= 0.70
     Davidson diagonalization with overlap
     ethr =  9.59E-04,  avg # of iterations =  1.8

     negative rho (up, down):  7.932E-04 0.000E+00

     total cpu time spent up to now is       13.6 secs

     total energy              =    -448.62277485 Ry
     estimated scf accuracy    <       1.28404054 Ry

     iteration # 13     ecut=   124.00 Ry     beta= 0.70
     Davidson diagonalization with overlap
     ethr =  9.59E-04,  avg # of iterations =  1.2

     negative rho (up, down):  9.274E-04 0.000E+00

     total cpu time spent up to now is       14.4 secs

     total energy              =    -448.63537755 Ry
     estimated scf accuracy    <       0.58154385 Ry

     iteration # 14     ecut=   124.00 Ry     beta= 0.70
     Davidson diagonalization with overlap
     ethr =  9.59E-04,  avg # of iterations =  1.0

     negative rho (up, down):  1.025E-03 0.000E+00

     total cpu time spent up to now is       15.3 secs

     total energy              =    -448.61055071 Ry
     estimated scf accuracy    <       0.50368914 Ry

     iteration # 15     ecut=   124.00 Ry     beta= 0.70
     Davidson diagonalization with overlap
     ethr =  9.59E-04,  avg # of iterations =  1.0

     negative rho (up, down):  1.032E-03 0.000E+00

     total cpu time spent up to now is       16.2 secs

     total energy              =    -448.61143942 Ry
     estimated scf accuracy    <       0.31963621 Ry

     iteration # 16     ecut=   124.00 Ry     beta= 0.70
     Davidson diagonalization with overlap
     ethr =  9.59E-04,  avg # of iterations =  1.0

     negative rho (up, down):  1.077E-03 0.000E+00

     total cpu time spent up to now is       17.1 secs

     total energy              =    -448.59313187 Ry
     estimated scf accuracy    <       0.28283031 Ry

     iteration # 17     ecut=   124.00 Ry     beta= 0.70
     Davidson diagonalization with overlap
     ethr =  9.59E-04,  avg # of iterations =  1.0

     negative rho (up, down):  1.074E-03 0.000E+00

     total cpu time spent up to now is       18.0 secs

     total energy              =    -448.60188466 Ry
     estimated scf accuracy    <       0.07727334 Ry

     iteration # 18     ecut=   124.00 Ry     beta= 0.70
     Davidson diagonalization with overlap
     ethr =  2.76E-04,  avg # of iterations =  1.6

     negative rho (up, down):  9.925E-04 0.000E+00

     total cpu time spent up to now is       18.9 secs

     total energy              =    -448.58361173 Ry
     estimated scf accuracy    <       0.14906511 Ry

     iteration # 19     ecut=   124.00 Ry     beta= 0.70
     Davidson diagonalization with overlap
     ethr =  2.76E-04,  avg # of iterations =  1.1

     negative rho (up, down):  9.436E-04 0.000E+00

     total cpu time spent up to now is       19.8 secs

     total energy              =    -448.59412597 Ry
     estimated scf accuracy    <       0.04848614 Ry

     iteration # 20     ecut=   124.00 Ry     beta= 0.70
     Davidson diagonalization with overlap
     ethr =  1.73E-04,  avg # of iterations =  1.1

     negative rho (up, down):  1.023E-03 0.000E+00

     total cpu time spent up to now is       20.7 secs

     total energy              =    -448.57755581 Ry
     estimated scf accuracy    <       0.17402928 Ry

     iteration # 21     ecut=   124.00 Ry     beta= 0.70
     Davidson diagonalization with overlap
     ethr =  1.73E-04,  avg # of iterations =  2.1

     negative rho (up, down):  1.012E-03 0.000E+00

     total cpu time spent up to now is       21.7 secs

     total energy              =    -448.58650556 Ry
     estimated scf accuracy    <       0.00384583 Ry

     iteration # 22     ecut=   124.00 Ry     beta= 0.70
     Davidson diagonalization with overlap
     ethr =  1.37E-05,  avg # of iterations =  4.6

     negative rho (up, down):  1.004E-03 0.000E+00

     total cpu time spent up to now is       22.7 secs

     total energy              =    -448.58691254 Ry
     estimated scf accuracy    <       0.00198474 Ry

     iteration # 23     ecut=   124.00 Ry     beta= 0.70
     Davidson diagonalization with overlap
     ethr =  7.09E-06,  avg # of iterations =  1.5

     negative rho (up, down):  1.006E-03 0.000E+00

     total cpu time spent up to now is       23.7 secs

     total energy              =    -448.58700272 Ry
     estimated scf accuracy    <       0.00176934 Ry

     iteration # 24     ecut=   124.00 Ry     beta= 0.70
     Davidson diagonalization with overlap
     ethr =  6.32E-06,  avg # of iterations =  1.0

     negative rho (up, down):  9.532E-04 0.000E+00

     total cpu time spent up to now is       24.6 secs

     total energy              =    -448.58622431 Ry
     estimated scf accuracy    <       0.00189334 Ry

     iteration # 25     ecut=   124.00 Ry     beta= 0.70
     Davidson diagonalization with overlap
     ethr =  6.32E-06,  avg # of iterations =  2.5

     negative rho (up, down):  9.519E-04 0.000E+00

     total cpu time spent up to now is       25.6 secs

     total energy              =    -448.58664002 Ry
     estimated scf accuracy    <       0.00120792 Ry

     iteration # 26     ecut=   124.00 Ry     beta= 0.70
     Davidson diagonalization with overlap
     ethr =  4.31E-06,  avg # of iterations =  1.0

     negative rho (up, down):  9.350E-04 0.000E+00

     total cpu time spent up to now is       26.5 secs

     total energy              =    -448.58685540 Ry
     estimated scf accuracy    <       0.00115500 Ry

     iteration # 27     ecut=   124.00 Ry     beta= 0.70
     Davidson diagonalization with overlap
     ethr =  4.13E-06,  avg # of iterations =  2.0

     negative rho (up, down):  9.665E-04 0.000E+00

     total cpu time spent up to now is       27.4 secs

     total energy              =    -448.58628949 Ry
     estimated scf accuracy    <       0.00358741 Ry

     iteration # 28     ecut=   124.00 Ry     beta= 0.70
     Davidson diagonalization with overlap
     ethr =  4.13E-06,  avg # of iterations =  2.0

     negative rho (up, down):  9.722E-04 0.000E+00

     total cpu time spent up to now is       28.4 secs

     total energy              =    -448.58652077 Ry
     estimated scf accuracy    <       0.00004732 Ry

     iteration # 29     ecut=   124.00 Ry     beta= 0.70
     Davidson diagonalization with overlap
     ethr =  1.69E-07,  avg # of iterations =  4.7

     negative rho (up, down):  9.640E-04 0.000E+00

     total cpu time spent up to now is       29.6 secs

     total energy              =    -448.58653251 Ry
     estimated scf accuracy    <       0.00024122 Ry

     iteration # 30     ecut=   124.00 Ry     beta= 0.70
     Davidson diagonalization with overlap
     ethr =  1.69E-07,  avg # of iterations =  3.7

     negative rho (up, down):  9.643E-04 0.000E+00

     total cpu time spent up to now is       30.7 secs

     total energy              =    -448.58655214 Ry
     estimated scf accuracy    <       0.00000020 Ry

     iteration # 31     ecut=   124.00 Ry     beta= 0.70
     Davidson diagonalization with overlap
     ethr =  7.22E-10,  avg # of iterations =  5.8

     negative rho (up, down):  9.639E-04 0.000E+00

     total cpu time spent up to now is       32.1 secs

     total energy              =    -448.58655245 Ry
     estimated scf accuracy    <       0.00000110 Ry

     iteration # 32     ecut=   124.00 Ry     beta= 0.70
     Davidson diagonalization with overlap
     ethr =  7.22E-10,  avg # of iterations =  3.7

     negative rho (up, down):  9.638E-04 0.000E+00

     total cpu time spent up to now is       33.1 secs

     total energy              =    -448.58655251 Ry
     estimated scf accuracy    <       0.00000016 Ry

     iteration # 33     ecut=   124.00 Ry     beta= 0.70
     Davidson diagonalization with overlap
     ethr =  5.58E-10,  avg # of iterations =  2.1

     negative rho (up, down):  9.641E-04 0.000E+00

     total cpu time spent up to now is       34.0 secs

     total energy              =    -448.58655247 Ry
     estimated scf accuracy    <       0.00000034 Ry

     iteration # 34     ecut=   124.00 Ry     beta= 0.70
     Davidson diagonalization with overlap
     ethr =  5.58E-10,  avg # of iterations =  2.0

     negative rho (up, down):  9.642E-04 0.000E+00

     total cpu time spent up to now is       35.0 secs

     total energy              =    -448.58655249 Ry
     estimated scf accuracy    <       0.00000001 Ry

     iteration # 35     ecut=   124.00 Ry     beta= 0.70
     Davidson diagonalization with overlap
     ethr =  5.04E-11,  avg # of iterations =  4.2

     negative rho (up, down):  9.641E-04 0.000E+00

     total cpu time spent up to now is       36.1 secs

     total energy              =    -448.58655249 Ry
     estimated scf accuracy    <       0.00000003 Ry

     iteration # 36     ecut=   124.00 Ry     beta= 0.70
     Davidson diagonalization with overlap
     ethr =  5.04E-11,  avg # of iterations =  3.8

     negative rho (up, down):  9.641E-04 0.000E+00

     total cpu time spent up to now is       37.2 secs

     total energy              =    -448.58655249 Ry
     estimated scf accuracy    <       0.00000001 Ry

     iteration # 37     ecut=   124.00 Ry     beta= 0.70
     Davidson diagonalization with overlap
     ethr =  3.67E-11,  avg # of iterations =  1.1

     negative rho (up, down):  9.642E-04 0.000E+00

     total cpu time spent up to now is       38.0 secs

     End of self-consistent calculation

          k = 0.0000 0.0000 0.0000 (  3911 PWs)   bands (ev):

   -69.2103 -39.1519 -35.2713 -35.2713 -35.2713 -15.2461 -15.2461 -15.2461
    10.1528  13.8638  13.8638  16.6568  16.6568  16.6568  18.9982  18.9982
    20.9365  20.9365

          k = 0.0000 0.0000 0.0909 (  3947 PWs)   bands (ev):

   -69.2100 -39.1497 -35.2739 -35.2710 -35.2710 -15.2754 -15.2443 -15.2443
    10.3257  13.9470  13.9536  16.6441  16.6441  16.6947  18.8926  19.0379
    20.6857  20.6857

          k = 0.0000 0.0000 0.1818 (  3964 PWs)   bands (ev):

   -69.2093 -39.1440 -35.2806 -35.2699 -35.2699 -15.3533 -15.2397 -15.2397
    10.8272  14.1866  14.1905  16.6148  16.6148  16.8008  18.5874  19.1278
    20.1021  20.1021

          k = 0.0000 0.0000 0.2727 (  3988 PWs)   bands (ev):

   -69.2083 -39.1366 -35.2894 -35.2686 -35.2686 -15.4541 -15.2335 -15.2335
    11.6057  14.4523  14.5738  16.5899  16.5899  16.9516  18.1202  19.1616
    19.4563  19.4563

          k = 0.0000 0.0000 0.3636 (  4008 PWs)   bands (ev):

   -69.2074 -39.1297 -35.2974 -35.2673 -35.2673 -15.5456 -15.2278 -15.2278
    12.5660  14.5651  15.0485  16.5850  16.5850  17.1052  17.5652  18.9274
    18.9274  18.9715

          k = 0.0000 0.0000 0.4545 (  3992 PWs)   bands (ev):

   -69.2069 -39.1256 -35.3021 -35.2666 -35.2666 -15.5994 -15.2245 -15.2245
    13.5347  14.3044  15.4744  16.5939  16.5939  17.0902  17.2053  18.6282
    18.6282  18.6588

          k = 0.0000 0.0909 0.0909 (  3966 PWs)   bands (ev):

   -69.2097 -39.1475 -35.2748 -35.2724 -35.2706 -15.2765 -15.2702 -15.2425
    10.4951  14.0265  14.0436  16.5616  16.6235  16.7909  18.8774  19.0086
    20.4103  20.4352

          k = 0.0000 0.0909 0.1818 (  3978 PWs)   bands (ev):

   -69.2090 -39.1414 -35.2811 -35.2723 -35.2696 -15.3509 -15.2676 -15.2376
    10.9856  14.2440  14.2906  16.4813  16.5732  16.9084  18.6426  19.0871
    19.8666  19.9000

          k = 0.0000 0.0909 0.2727 (  3995 PWs)   bands (ev):

   -69.2080 -39.1335 -35.2900 -35.2716 -35.2682 -15.4506 -15.2606 -15.2312
    11.7434  14.5128  14.6445  16.4377  16.5167  16.9935  18.2447  19.0577
    19.3653  19.4001

          k = 0.0000 0.0909 0.3636 (  3991 PWs)   bands (ev):

   -69.2071 -39.1262 -35.2982 -35.2708 -35.2670 -15.5411 -15.2541 -15.2253
    12.6707  14.6170  15.0808  16.4435  16.4656  16.9997  17.7899  18.6459
    19.0664  19.2132

          k = 0.0000 0.0909 0.4545 (  3999 PWs)   bands (ev):

   -69.2066 -39.1219 -35.3030 -35.2704 -35.2663 -15.5944 -15.2503 -15.2217
    13.5943  14.3519  15.4692  16.3968  16.4805  16.9451  17.4633  18.3527
    18.9323  19.0197

          k = 0.0000 0.1818 0.1818 (  3972 PWs)   bands (ev):

   -69.2082 -39.1345 -35.2840 -35.2772 -35.2686 -15.3519 -15.3343 -15.2321
    11.4401  14.3900  14.5687  16.3070  16.4778  16.9857  18.6948  19.0458
    19.3496  19.5758

          k = 0.0000 0.1818 0.2727 (  4003 PWs)   bands (ev):

   -69.2073 -39.1253 -35.2920 -35.2794 -35.2673 -15.4413 -15.3326 -15.2250
    12.1275  14.5565  14.9462  16.1858  16.3868  16.9101  18.5208  18.8014
    19.2048  19.3971

          k = 0.0000 0.1818 0.3636 (  3997 PWs)   bands (ev):

   -69.2064 -39.1169 -35.3004 -35.2802 -35.2661 -15.5291 -15.3242 -15.2184
    12.9354  14.5943  15.3322  16.1499  16.3572  16.7002  18.2182  18.4617
    19.3302  19.4170

          k = 0.0000 0.1818 0.4545 (  3990 PWs)   bands (ev):

   -69.2059 -39.1119 -35.3055 -35.2806 -35.2654 -15.5809 -15.3192 -15.2144
    13.6841  14.3630  15.6125  16.2009  16.3901  16.4819  18.0480  18.2166
    19.3519  19.5140

          k = 0.0000 0.2727 0.2727 (  4000 PWs)   bands (ev):

   -69.2063 -39.1146 -35.2961 -35.2880 -35.2661 -15.4378 -15.4172 -15.2168
    12.6688  14.5348  15.3963  15.9775  16.3399  16.6425  18.5788  18.7502
    19.1052  19.5703

          k = 0.0000 0.2727 0.3636 (  3993 PWs)   bands (ev):

   -69.2054 -39.1047 -35.3035 -35.2923 -35.2649 -15.5135 -15.4149 -15.2093
    13.2265  14.4165  15.8407  15.8678  16.3180  16.4951  18.3958  18.7291
    19.2748  19.8464

          k = 0.0000 0.2727 0.4545 (  3996 PWs)   bands (ev):

   -69.2049 -39.0988 -35.3088 -35.2939 -35.2643 -15.5633 -15.4084 -15.2048
    13.6460  14.2282  15.8808  16.0550  16.0845  16.8466  18.1510  18.6844
    19.4869  20.0941

          k = 0.0000 0.3636 0.3636 (  4002 PWs)   bands (ev):

   -69.2046 -39.0934 -35.3073 -35.3025 -35.2639 -15.5042 -15.4923 -15.2009
    13.4198  14.2078  15.6811  15.9708  16.4456  16.8939  18.5222  19.0880
    19.1103  20.2512

          k = 0.0000 0.3636 0.4545 (  3999 PWs)   bands (ev):

   -69.2040 -39.0867 -35.3119 -35.3061 -35.2632 -15.5470 -15.4894 -15.1960
    13.5038  14.0682  15.6293  15.7309  16.8140  17.5390  18.2827  19.1482
    19.3229  20.5544

          k = 0.0000 0.4545 0.4545 (  3998 PWs)   bands (ev):

   -69.2035 -39.0794 -35.3139 -35.3132 -35.2626 -15.5381 -15.5364 -15.1907
    13.3945  13.9723  15.5084  15.5425  17.5106  17.9878  18.6669  18.8520
    19.4119  20.8261

          k = 0.0909 0.0909 0.0909 (  3959 PWs)   bands (ev):

   -69.2094 -39.1451 -35.2744 -35.2744 -35.2711 -15.2769 -15.2684 -15.2684
    10.6615  14.1185  14.1185  16.5391  16.5391  16.8681  18.9294  18.9294
    19.9928  20.6651

          k = 0.0909 0.0909 0.1818 (  3966 PWs)   bands (ev):

   -69.2087 -39.1388 -35.2813 -35.2733 -35.2710 -15.3483 -15.2672 -15.2636
    11.1426  14.3361  14.3554  16.4286  16.4796  16.9503  18.7011  19.0492
    19.5188  20.0788

          k = 0.0909 0.0909 0.2727 (  3992 PWs)   bands (ev):

   -69.2077 -39.1304 -35.2905 -35.2719 -35.2707 -15.4471 -15.2591 -15.2574
    11.8826  14.6168  14.6736  16.3700  16.3987  16.9454  18.3564  19.0005
    19.3236  19.4428

          k = 0.0909 0.0909 0.3636 (  3994 PWs)   bands (ev):

   -69.2068 -39.1228 -35.2988 -35.2707 -35.2704 -15.5368 -15.2516 -15.2516
    12.7810  14.7008  15.0813  16.2989  16.4005  16.8595  17.9712  18.7163
    18.9368  19.4202

          k = 0.0909 0.0909 0.4545 (  4007 PWs)   bands (ev):

   -69.2063 -39.1183 -35.3038 -35.2702 -35.2699 -15.5896 -15.2481 -15.2471
    13.6656  14.4197  15.4383  16.1745  16.5156  16.7699  17.6949  18.4315
    18.6597  19.5237

          k = 0.0909 0.1818 0.1818 (  3984 PWs)   bands (ev):

   -69.2080 -39.1316 -35.2836 -35.2780 -35.2712 -15.3487 -15.3325 -15.2595
    11.5926  14.4938  14.6188  16.2700  16.3702  16.9131  18.7644  19.0172
    19.2358  19.7948

          k = 0.0909 0.1818 0.2727 (  3994 PWs)   bands (ev):

   -69.2070 -39.1222 -35.2919 -35.2795 -35.2705 -15.4380 -15.3301 -15.2518
    12.2705  14.6756  14.9647  16.1421  16.2715  16.7315  18.6109  18.9228
    19.2407  19.4559

          k = 0.0909 0.1818 0.3636 (  4001 PWs)   bands (ev):

   -69.2061 -39.1136 -35.3007 -35.2800 -35.2697 -15.5253 -15.3217 -15.2447
    13.0616  14.7215  15.2859  16.0686  16.2634  16.5479  18.3724  18.5771
    19.1012  19.7199

          k = 0.0909 0.1818 0.4545 (  3993 PWs)   bands (ev):

   -69.2056 -39.1084 -35.3060 -35.2802 -35.2692 -15.5768 -15.3167 -15.2405
    13.7875  14.4740  15.5175  16.0018  16.3647  16.4909  18.1991  18.2872
    18.8991  20.1084

          k = 0.0909 0.2727 0.2727 (  3989 PWs)   bands (ev):

   -69.2061 -39.1114 -35.2957 -35.2883 -35.2695 -15.4340 -15.4153 -15.2435
    12.8158  14.6587  15.4058  15.9390  16.2101  16.4306  18.6963  18.9063
    19.0873  19.7047

          k = 0.0909 0.2727 0.3636 (  3985 PWs)   bands (ev):

   -69.2052 -39.1015 -35.3033 -35.2922 -35.2686 -15.5103 -15.4125 -15.2357
    13.3703  14.5419  15.7742  15.8302  16.2030  16.3600  18.4780  18.8193
    19.1582  20.1172

          k = 0.0909 0.2727 0.4545 (  4006 PWs)   bands (ev):

   -69.2046 -39.0955 -35.3089 -35.2935 -35.2680 -15.5600 -15.4061 -15.2311
    13.7756  14.3545  15.7972  15.8477  16.1550  16.7541  18.1884  18.7887
    19.0873  20.6002

          k = 0.0909 0.3636 0.3636 (  3992 PWs)   bands (ev):

   -69.2043 -39.0903 -35.3068 -35.3024 -35.2675 -15.5011 -15.4904 -15.2274
    13.5656  14.3325  15.6506  15.8817  16.4032  16.7209  18.4860  18.9868
    19.1887  20.5636

          k = 0.0909 0.3636 0.4545 (  4002 PWs)   bands (ev):

   -69.2038 -39.0836 -35.3116 -35.3057 -35.2669 -15.5446 -15.4873 -15.2224
    13.6401  14.1966  15.5970  15.6797  16.7391  17.3611  18.2404  18.9494
    19.2815  20.7958

          k = 0.0909 0.4545 0.4545 (  3993 PWs)   bands (ev):

   -69.2033 -39.0765 -35.3134 -35.3128 -35.2662 -15.5360 -15.5345 -15.2173
    13.5314  14.1009  15.4860  15.5157  17.4523  17.8446  18.4160  18.5135
    19.4899  21.0193

          k = 0.1818 0.1818 0.1818 (  3989 PWs)   bands (ev):

   -69.2072 -39.1239 -35.2825 -35.2825 -35.2757 -15.3447 -15.3275 -15.3275
    12.0266  14.7610  14.7610  16.1712  16.1712  16.6504  18.9328  18.9328
    19.2929  20.0374

          k = 0.1818 0.1818 0.2727 (  3992 PWs)   bands (ev):

   -69.2063 -39.1139 -35.2921 -35.2810 -35.2777 -15.4292 -15.3259 -15.3210
    12.6697  14.9702  15.0333  16.0341  16.0388  16.3368  18.8049  19.0078
    19.4273  19.5988

          k = 0.1818 0.1818 0.3636 (  3994 PWs)   bands (ev):

   -69.2054 -39.1046 -35.3016 -35.2796 -35.2790 -15.5151 -15.3151 -15.3150
    13.3929  15.0074  15.2036  15.8991  16.0682  16.2649  18.6704  18.7433
    18.9523  20.1600

          k = 0.1818 0.1818 0.4545 (  3986 PWs)   bands (ev):

   -69.2049 -39.0991 -35.3073 -35.2797 -35.2788 -15.5658 -15.3114 -15.3085
    14.0172  14.6821  15.3921  15.7788  16.1845  16.4450  18.3322  18.5953
    18.6806  20.5298

          k = 0.1818 0.2727 0.2727 (  3994 PWs)   bands (ev):

   -69.2053 -39.1029 -35.2944 -35.2893 -35.2787 -15.4238 -15.4102 -15.3144
    13.2274  14.9964  15.4273  15.8397  15.9189  15.9976  18.8252  19.0096
    19.3284  20.0777

          k = 0.1818 0.2727 0.3636 (  3988 PWs)   bands (ev):

   -69.2045 -39.0928 -35.3031 -35.2918 -35.2783 -15.5017 -15.4060 -15.3061
    13.7701  14.8706  15.5749  15.7253  15.9737  16.0870  18.5905  18.8382
    19.2207  20.3803

          k = 0.1818 0.2727 0.4545 (  3991 PWs)   bands (ev):

   -69.2039 -39.0868 -35.3091 -35.2925 -35.2779 -15.5513 -15.4000 -15.3011
    14.1253  14.6660  15.5488  15.6706  16.0602  16.5356  18.2319  18.6757
    19.1297  20.6014

          k = 0.1818 0.3636 0.3636 (  3990 PWs)   bands (ev):

   -69.2036 -39.0819 -35.3055 -35.3022 -35.2773 -15.4929 -15.4852 -15.2979
    13.9820  14.6576  15.5747  15.6896  16.2719  16.2956  18.4622  18.6969
    19.4850  20.5435

          k = 0.1818 0.3636 0.4545 (  3993 PWs)   bands (ev):

   -69.2031 -39.0754 -35.3108 -35.3045 -35.2767 -15.5379 -15.4817 -15.2930
    14.0272  14.5323  15.5200  15.5675  16.4915  16.9250  18.1794  18.5402
    19.5616  20.7853

          k = 0.1818 0.4545 0.4545 (  4002 PWs)   bands (ev):

   -69.2026 -39.0686 -35.3120 -35.3116 -35.2760 -15.5305 -15.5294 -15.2882
    13.9234  14.4434  15.4329  15.4545  17.1746  17.2811  18.0690  18.2503
    19.7506  21.0765

          k = 0.2727 0.2727 0.2727 (  3998 PWs)   bands (ev):

   -69.2044 -39.0917 -35.2928 -35.2928 -35.2886 -15.4134 -15.4035 -15.4035
    13.7990  15.4441  15.4441  15.5182  15.7193  15.7193  18.8337  18.8337
    19.7983  19.7983

          k = 0.2727 0.2727 0.3636 (  3992 PWs)   bands (ev):

   -69.2035 -39.0814 -35.3030 -35.2913 -35.2908 -15.4906 -15.3975 -15.3973
    14.2965  15.1356  15.4426  15.6207  15.7209  15.9354  18.5785  18.6239
    19.6455  20.2947

          k = 0.2727 0.2727 0.4545 (  3990 PWs)   bands (ev):

   -69.2030 -39.0752 -35.3095 -35.2915 -35.2904 -15.5398 -15.3936 -15.3902
    14.5097  14.9115  15.4302  15.5701  15.9004  16.3710  18.1751  18.4970
    19.5914  20.6352

          k = 0.2727 0.3636 0.3636 (  3988 PWs)   bands (ev):

   -69.2027 -39.0709 -35.3037 -35.3021 -35.2902 -15.4822 -15.4785 -15.3893
    14.5957  15.0027  15.4917  15.5872  15.8170  16.0595  18.4143  18.4173
    19.9496  20.4946

          k = 0.2727 0.3636 0.4545 (  3992 PWs)   bands (ev):

   -69.2021 -39.0646 -35.3099 -35.3030 -35.2896 -15.5292 -15.4743 -15.3844
    14.5794  14.9171  15.4521  15.5076  16.1032  16.4659  18.0772  18.3312
    20.0120  20.8206

          k = 0.2727 0.4545 0.4545 (  4000 PWs)   bands (ev):

   -69.2016 -39.0583 -35.3102 -35.3100 -35.2888 -15.5232 -15.5227 -15.3800
    14.5067  14.8769  15.3854  15.4135  16.6254  16.6525  17.9060  18.1706
    20.1897  21.1136

          k = 0.3636 0.3636 0.3636 (  3999 PWs)   bands (ev):

   -69.2018 -39.0607 -35.3021 -35.3021 -35.3018 -15.4725 -15.4722 -15.4722
    14.9948  15.3300  15.4470  15.4470  15.8145  15.8145  18.2411  18.2411
    20.5002  20.5002

          k = 0.3636 0.3636 0.4545 (  4008 PWs)   bands (ev):

   -69.2013 -39.0547 -35.3090 -35.3018 -35.3011 -15.5212 -15.4685 -15.4665
    14.9931  15.1653  15.4767  15.6074  15.7984  16.1604  17.9824  18.1639
    20.5129  20.9126

          k = 0.3636 0.4545 0.4545 (  3994 PWs)   bands (ev):

   -69.2008 -39.0488 -35.3085 -35.3085 -35.3006 -15.5165 -15.5165 -15.4635
    15.1008  15.2495  15.3888  15.4963  16.0924  16.1437  17.8651  18.0301
    20.7353  21.1430

          k = 0.4545 0.4545 0.4545 (  3972 PWs)   bands (ev):

   -69.2003 -39.0431 -35.3076 -35.3075 -35.3075 -15.5128 -15.5128 -15.5124
    15.3317  15.4752  15.4752  15.7775  15.7775  15.8004  17.8552  17.8552
    21.1597  21.1597

     the Fermi energy is    17.5936 ev

!    total energy              =    -448.58655249 Ry
     estimated scf accuracy    <          7.2E-10 Ry
     smearing contrib. (-TS)   =       0.00005038 Ry
     internal energy E=F+TS    =    -448.58660287 Ry

     The total energy is F=E-TS. E is the sum of the following terms:
     one-electron contribution =    -151.34228246 Ry
     hartree contribution      =      91.61721373 Ry
     xc contribution           =     -52.88698660 Ry
     ewald contribution        =    -259.82070277 Ry
     one-center paw contrib.   =     -76.15384478 Ry

     convergence has been achieved in  37 iterations

     negative rho (up, down):  9.642E-04 0.000E+00

     Forces acting on atoms (cartesian axes, Ry/au):

     atom    1 type  1   force =     0.00000000    0.00000000    0.00000000
     atom    2 type  2   force =     0.00000000    0.00000000    0.00000000

     Total force =     0.000000     Total SCF correction =     0.000000


     Computing stress (Cartesian axis) and pressure


     negative rho (up, down):  9.642E-04 0.000E+00
          total   stress  (Ry/bohr**3)                   (kbar)     P=       31.49
   0.00021405   0.00000000   0.00000000           31.49        0.00        0.00
   0.00000000   0.00021405   0.00000000            0.00       31.49        0.00
   0.00000000   0.00000000   0.00021405            0.00        0.00       31.49


     BFGS Geometry Optimization
     Energy error            =      9.0E-05 Ry
     Gradient error          =      0.0E+00 Ry/Bohr
     Cell gradient error     =      1.2E+01 kbar

     number of scf cycles    =   1
     number of bfgs steps    =   0

     enthalpy           new  =    -448.5355977852 Ry

     new trust radius        =       0.0054624881 bohr
     new conv_thr            =       0.0000000100 Ry

     new unit-cell volume =    170.18899 a.u.^3 (    25.21941 Ang^3 )
     density =      6.82878 g/cm^3

CELL_PARAMETERS (alat=  5.55330037)
   0.997912946   0.000000000   0.000000000
   0.000000000   0.997912946   0.000000000
   0.000000000   0.000000000   0.997912946

ATOMIC_POSITIONS (crystal)
Fe               0.5000000000        0.5000000000        0.5000000000
Ti               0.0000000000        0.0000000000        0.0000000000



     Writing config-only to output data dir ./TiFe.save/ :
     XML data file
     NEW-OLD atomic charge density approx. for the potential
     New effective cutoffs (rho, wfc): 1743.14  124.51

     Check: negative core charge=   -0.000002

     negative rho (up, down):  9.592E-04 0.000E+00

     total cpu time spent up to now is       40.0 secs

     per-process dynamical memory:   153.1 Mb

     Self-consistent Calculation

     iteration #  1     ecut=   124.00 Ry     beta= 0.70
     Davidson diagonalization with overlap
     ethr =  1.00E-06,  avg # of iterations =  3.0

     Threshold (ethr) on eigenvalues was too large:
     Diagonalizing with lowered threshold

     Davidson diagonalization with overlap
     ethr =  1.29E-08,  avg # of iterations =  4.9

     negative rho (up, down):  9.615E-04 0.000E+00

     total cpu time spent up to now is       42.3 secs

     total energy              =    -448.58625078 Ry
     estimated scf accuracy    <       0.00000712 Ry

     iteration #  2     ecut=   124.00 Ry     beta= 0.70
     Davidson diagonalization with overlap
     ethr =  2.54E-08,  avg # of iterations =  4.2

     negative rho (up, down):  9.627E-04 0.000E+00

     total cpu time spent up to now is       43.4 secs

     total energy              =    -448.58623919 Ry
     estimated scf accuracy    <       0.00050927 Ry

     iteration #  3     ecut=   124.00 Ry     beta= 0.70
     Davidson diagonalization with overlap
     ethr =  2.54E-08,  avg # of iterations =  4.8

     negative rho (up, down):  9.623E-04 0.000E+00

     total cpu time spent up to now is       44.6 secs

     total energy              =    -448.58627421 Ry
     estimated scf accuracy    <       0.00000843 Ry

     iteration #  4     ecut=   124.00 Ry     beta= 0.70
     Davidson diagonalization with overlap
     ethr =  2.54E-08,  avg # of iterations =  1.1

     negative rho (up, down):  9.627E-04 0.000E+00

     total cpu time spent up to now is       45.5 secs

     total energy              =    -448.58627484 Ry
     estimated scf accuracy    <       0.00000132 Ry

     iteration #  5     ecut=   124.00 Ry     beta= 0.70
     Davidson diagonalization with overlap
     ethr =  4.71E-09,  avg # of iterations =  3.4

     negative rho (up, down):  9.627E-04 0.000E+00

     total cpu time spent up to now is       46.4 secs

     total energy              =    -448.58627502 Ry
     estimated scf accuracy    <       0.00000014 Ry

     iteration #  6     ecut=   124.00 Ry     beta= 0.70
     Davidson diagonalization with overlap
     ethr =  4.93E-10,  avg # of iterations =  2.7

     negative rho (up, down):  9.627E-04 0.000E+00

     total cpu time spent up to now is       47.4 secs

     total energy              =    -448.58627504 Ry
     estimated scf accuracy    <       0.00000003 Ry

     iteration #  7     ecut=   124.00 Ry     beta= 0.70
     Davidson diagonalization with overlap
     ethr =  9.30E-11,  avg # of iterations =  3.7

     negative rho (up, down):  9.627E-04 0.000E+00

     total cpu time spent up to now is       48.5 secs

     total energy              =    -448.58627505 Ry
     estimated scf accuracy    <       0.00000001 Ry

     iteration #  8     ecut=   124.00 Ry     beta= 0.70
     Davidson diagonalization with overlap
     ethr =  4.19E-11,  avg # of iterations =  2.9

     negative rho (up, down):  9.628E-04 0.000E+00

     total cpu time spent up to now is       49.4 secs

     total energy              =    -448.58627504 Ry
     estimated scf accuracy    <       0.00000002 Ry

     iteration #  9     ecut=   124.00 Ry     beta= 0.70
     Davidson diagonalization with overlap
     ethr =  4.19E-11,  avg # of iterations =  2.1

     negative rho (up, down):  9.629E-04 0.000E+00

     total cpu time spent up to now is       50.4 secs

     End of self-consistent calculation

          k = 0.0000 0.0000 0.0000 (  3911 PWs)   bands (ev):

   -69.0860 -39.0105 -35.1473 -35.1473 -35.1473 -15.1029 -15.1029 -15.1029
    10.2617  13.9588  13.9588  16.7774  16.7774  16.7774  19.1366  19.1366
    21.0918  21.0918

          k = 0.0000 0.0000 0.0911 (  3947 PWs)   bands (ev):

   -69.0857 -39.0084 -35.1499 -35.1470 -35.1470 -15.1328 -15.1011 -15.1011
    10.4356  14.0426  14.0498  16.7645  16.7645  16.8156  19.0299  19.1769
    20.8386  20.8386

          k = 0.0000 0.0000 0.1822 (  3964 PWs)   bands (ev):

   -69.0850 -39.0026 -35.1568 -35.1459 -35.1459 -15.2125 -15.0964 -15.0964
    10.9399  14.2863  14.2878  16.7352  16.7352  16.9226  18.7214  19.2682
    20.2497  20.2497

          k = 0.0000 0.0000 0.2733 (  3988 PWs)   bands (ev):

   -69.0840 -38.9950 -35.1657 -35.1445 -35.1445 -15.3156 -15.0901 -15.0901
    11.7221  14.5574  14.6739  16.7103  16.7103  17.0747  18.2493  19.3039
    19.5980  19.5980

          k = 0.0000 0.0000 0.3644 (  4008 PWs)   bands (ev):

   -69.0830 -38.9880 -35.1738 -35.1432 -35.1432 -15.4091 -15.0844 -15.0844
    12.6858  14.6766  15.1523  16.7058  16.7058  17.2296  17.6887  19.0644
    19.0644  19.1152

          k = 0.0000 0.0000 0.4555 (  3992 PWs)   bands (ev):

   -69.0825 -38.9839 -35.1786 -35.1425 -35.1425 -15.4641 -15.0809 -15.0809
    13.6557  14.4220  15.5819  16.7150  16.7150  17.2090  17.3306  18.7623
    18.7623  18.8018

          k = 0.0000 0.0911 0.0911 (  3966 PWs)   bands (ev):

   -69.0854 -39.0061 -35.1509 -35.1484 -35.1466 -15.1340 -15.1275 -15.0993
    10.6060  14.1229  14.1408  16.6813  16.7438  16.9128  19.0146  19.1473
    20.5605  20.5858

          k = 0.0000 0.0911 0.1822 (  3978 PWs)   bands (ev):

   -69.0847 -38.9999 -35.1573 -35.1483 -35.1455 -15.2101 -15.1249 -15.0943
    11.0991  14.3427  14.3906  16.6002  16.6933  17.0315  18.7772  19.2270
    20.0122  20.0455

          k = 0.0000 0.0911 0.2733 (  3995 PWs)   bands (ev):

   -69.0837 -38.9918 -35.1664 -35.1476 -35.1442 -15.3120 -15.1178 -15.0877
    11.8603  14.6172  14.7466  16.5564  16.6366  17.1174  18.3751  19.1987
    19.5067  19.5411

          k = 0.0000 0.0911 0.3644 (  3991 PWs)   bands (ev):

   -69.0828 -38.9844 -35.1746 -35.1468 -35.1429 -15.4045 -15.1112 -15.0817
    12.7904  14.7282  15.1857  16.5625  16.5852  17.1234  17.9158  18.7833
    19.2045  19.3561

          k = 0.0000 0.0911 0.4555 (  3999 PWs)   bands (ev):

   -69.0822 -38.9800 -35.1795 -35.1464 -35.1421 -15.4590 -15.1073 -15.0781
    13.7146  14.4690  15.5771  16.5157  16.6004  17.0678  17.5865  18.4884
    19.0695  19.1622

          k = 0.0000 0.1822 0.1822 (  3972 PWs)   bands (ev):

   -69.0839 -38.9928 -35.1604 -35.1532 -35.1445 -15.2112 -15.1931 -15.0887
    11.5555  14.4902  14.6720  16.4242  16.5974  17.1097  18.8302  19.1852
    19.4910  19.7182

          k = 0.0000 0.1822 0.2733 (  4003 PWs)   bands (ev):

   -69.0829 -38.9834 -35.1684 -35.1555 -35.1432 -15.3025 -15.1913 -15.0814
    12.2451  14.6596  15.0535  16.3019  16.5062  17.0334  18.6541  18.9395
    19.3457  19.5379

          k = 0.0000 0.1822 0.3644 (  3997 PWs)   bands (ev):

   -69.0820 -38.9748 -35.1770 -35.1564 -35.1420 -15.3922 -15.1828 -15.0746
    13.0539  14.7022  15.4427  16.2658  16.4772  16.8214  18.3485  18.5976
    19.4740  19.5584

          k = 0.0000 0.1822 0.4555 (  3990 PWs)   bands (ev):

   -69.0815 -38.9697 -35.1822 -35.1568 -35.1412 -15.4451 -15.1776 -15.0706
    13.8007  14.4764  15.7245  16.3177  16.5117  16.6006  18.1771  18.3509
    19.4976  19.6566

          k = 0.0000 0.2733 0.2733 (  4000 PWs)   bands (ev):

   -69.0819 -38.9724 -35.1728 -35.1642 -35.1419 -15.2989 -15.2777 -15.0730
    12.7859  14.6387  15.5084  16.0916  16.4605  16.7633  18.7153  18.8853
    19.2461  19.7130

          k = 0.0000 0.2733 0.3644 (  3993 PWs)   bands (ev):

   -69.0810 -38.9622 -35.1803 -35.1688 -35.1408 -15.3762 -15.2754 -15.0654
    13.3407  14.5223  15.9573  15.9810  16.4356  16.6194  18.5314  18.8645
    19.4181  19.9918

          k = 0.0000 0.2733 0.4555 (  3996 PWs)   bands (ev):

   -69.0805 -38.9562 -35.1857 -35.1705 -35.1401 -15.4270 -15.2687 -15.0608
    13.7551  14.3370  15.9943  16.1701  16.2036  16.9757  18.2855  18.8189
    19.6341  20.2420

          k = 0.0000 0.3644 0.3644 (  4002 PWs)   bands (ev):

   -69.0801 -38.9506 -35.1843 -35.1792 -35.1397 -15.3666 -15.3543 -15.0568
    13.5275  14.3131  15.7926  16.0852  16.5678  17.0241  18.6602  19.2264
    19.2532  20.4004

          k = 0.0000 0.3644 0.4555 (  3999 PWs)   bands (ev):

   -69.0796 -38.9436 -35.1889 -35.1831 -35.1390 -15.4103 -15.3514 -15.0517
    13.6065  14.1742  15.7405  15.8431  16.9399  17.6744  18.4196  19.2881
    19.4685  20.7066

          k = 0.0000 0.4555 0.4555 (  3998 PWs)   bands (ev):

   -69.0791 -38.9362 -35.1911 -35.1904 -35.1384 -15.4011 -15.3994 -15.0463
    13.4940  14.0769  15.6185  15.6529  17.6406  18.1239  18.8100  18.9967
    19.5537  20.9809

          k = 0.0911 0.0911 0.0911 (  3959 PWs)   bands (ev):

   -69.0852 -39.0036 -35.1505 -35.1505 -35.1471 -15.1345 -15.1257 -15.1257
    10.7733  14.2161  14.2161  16.6586  16.6586  16.9909  19.0672  19.0672
    20.1392  20.8178

          k = 0.0911 0.0911 0.1822 (  3966 PWs)   bands (ev):

   -69.0844 -38.9972 -35.1575 -35.1494 -35.1470 -15.2075 -15.1245 -15.1209
    11.2569  14.4353  14.4565  16.5471  16.5986  17.0741  18.8364  19.1887
    19.6610  20.2263

          k = 0.0911 0.0911 0.2733 (  3992 PWs)   bands (ev):

   -69.0834 -38.9887 -35.1668 -35.1480 -35.1467 -15.3084 -15.1163 -15.1145
    11.9999  14.7230  14.7753  16.4882  16.5172  17.0692  18.4880  19.1406
    19.4647  19.5846

          k = 0.0911 0.0911 0.3644 (  3994 PWs)   bands (ev):

   -69.0825 -38.9809 -35.1753 -35.1467 -35.1464 -15.4001 -15.1086 -15.1086
    12.9008  14.8129  15.1861  16.4167  16.5194  16.9821  18.0989  18.8555
    19.0742  19.5635

          k = 0.0911 0.0911 0.4555 (  4007 PWs)   bands (ev):

   -69.0819 -38.9763 -35.1804 -35.1462 -35.1459 -15.4541 -15.1051 -15.1040
    13.7856  14.5368  15.5459  16.2912  16.6362  16.8914  17.8201  18.5700
    18.7946  19.6687

          k = 0.0911 0.1822 0.1822 (  3984 PWs)   bands (ev):

   -69.0836 -38.9898 -35.1599 -35.1540 -35.1471 -15.2079 -15.1912 -15.1166
    11.7087  14.5952  14.7224  16.3869  16.4885  17.0369  18.9005  19.1562
    19.3759  19.9397

          k = 0.0911 0.1822 0.2733 (  3994 PWs)   bands (ev):

   -69.0826 -38.9802 -35.1684 -35.1557 -35.1465 -15.2991 -15.1888 -15.1088
    12.3888  14.7798  15.0722  16.2580  16.3895  16.8534  18.7453  19.0622
    19.3816  19.5977

          k = 0.0911 0.1822 0.3644 (  4001 PWs)   bands (ev):

   -69.0817 -38.9714 -35.1773 -35.1562 -35.1456 -15.3883 -15.1803 -15.1016
    13.1806  14.8306  15.3958  16.1842  16.3821  16.6678  18.5040  18.7144
    19.2418  19.8652

          k = 0.0911 0.1822 0.4555 (  3993 PWs)   bands (ev):

   -69.0812 -38.9661 -35.1827 -35.1565 -35.1451 -15.4409 -15.1751 -15.0972
    13.9046  14.5883  15.6277  16.1177  16.4837  16.6119  18.3297  18.4223
    19.0383  20.2580

          k = 0.0911 0.2733 0.2733 (  3989 PWs)   bands (ev):

   -69.0817 -38.9691 -35.1723 -35.1646 -35.1455 -15.2950 -15.2758 -15.1003
    12.9339  14.7637  15.5179  16.0529  16.3289  16.5496  18.8339  19.0426
    19.2281  19.8492

          k = 0.0911 0.2733 0.3644 (  3985 PWs)   bands (ev):

   -69.0808 -38.9589 -35.1801 -35.1687 -35.1445 -15.3729 -15.2729 -15.0924
    13.4854  14.6487  15.8890  15.9441  16.3202  16.4824  18.6144  18.9555
    19.3000  20.2658

          k = 0.0911 0.2733 0.4555 (  4006 PWs)   bands (ev):

   -69.0802 -38.9528 -35.1858 -35.1701 -35.1439 -15.4236 -15.2664 -15.0876
    13.8854  14.4642  15.9100  15.9622  16.2742  16.8817  18.3234  18.9240
    19.2292  20.7530

          k = 0.0911 0.3644 0.3644 (  3992 PWs)   bands (ev):

   -69.0798 -38.9474 -35.1837 -35.1791 -35.1434 -15.3635 -15.3524 -15.0839
    13.6741  14.4388  15.7621  15.9955  16.5251  16.8494  18.6229  19.1287
    19.3278  20.7163

          k = 0.0911 0.3644 0.4555 (  4002 PWs)   bands (ev):

   -69.0793 -38.9405 -35.1886 -35.1826 -35.1428 -15.4078 -15.3493 -15.0788
    13.7436  14.3036  15.7080  15.7916  16.8648  17.4950  18.3764  19.0916
    19.4216  20.9496

          k = 0.0911 0.4555 0.4555 (  3993 PWs)   bands (ev):

   -69.0788 -38.9332 -35.1905 -35.1899 -35.1421 -15.3990 -15.3975 -15.0735
    13.6318  14.2065  15.5961  15.6260  17.5824  17.9812  18.5545  18.6544
    19.6322  21.1748

          k = 0.1822 0.1822 0.1822 (  3989 PWs)   bands (ev):

   -69.0829 -38.9820 -35.1588 -35.1588 -35.1516 -15.2039 -15.1861 -15.1861
    12.1446  14.8655  14.8655  16.2875  16.2875  16.7720  19.0710  19.0710
    19.4340  20.1845

          k = 0.1822 0.1822 0.2733 (  3992 PWs)   bands (ev):

   -69.0819 -38.9716 -35.1686 -35.1572 -35.1538 -15.2901 -15.1845 -15.1795
    12.7895  15.0762  15.1424  16.1493  16.1542  16.4554  18.9416  19.1481
    19.5690  19.7430

          k = 0.1822 0.1822 0.3644 (  3994 PWs)   bands (ev):

   -69.0810 -38.9621 -35.1783 -35.1558 -35.1552 -15.3778 -15.1734 -15.1734
    13.5127  15.1203  15.3110  16.0139  16.1847  16.3828  18.8055  18.8832
    19.0899  20.3096

          k = 0.1822 0.1822 0.4555 (  3986 PWs)   bands (ev):

   -69.0804 -38.9565 -35.1841 -35.1559 -35.1550 -15.4296 -15.1697 -15.1667
    14.1341  14.7971  15.5003  15.8934  16.3027  16.5662  18.4698  18.7290
    18.8162  20.6813

          k = 0.1822 0.2733 0.2733 (  3994 PWs)   bands (ev):

   -69.0809 -38.9603 -35.1711 -35.1657 -35.1549 -15.2846 -15.2706 -15.1728
    13.3479  15.1044  15.5394  15.9533  16.0339  16.1135  18.9636  19.1500
    19.4684  20.2267

          k = 0.1822 0.2733 0.3644 (  3988 PWs)   bands (ev):

   -69.0800 -38.9500 -35.1798 -35.1683 -35.1545 -15.3641 -15.2663 -15.1643
    13.8876  14.9801  15.6872  15.8386  16.0913  16.2048  18.7279  18.9776
    19.3596  20.5299

          k = 0.1822 0.2733 0.4555 (  3991 PWs)   bands (ev):

   -69.0795 -38.9438 -35.1860 -35.1690 -35.1541 -15.4147 -15.2601 -15.1592
    14.2371  14.7777  15.6593  15.7844  16.1798  16.6598  18.3678  18.8132
    19.2677  20.7534

          k = 0.1822 0.3644 0.3644 (  3990 PWs)   bands (ev):

   -69.0791 -38.9387 -35.1824 -35.1790 -35.1535 -15.3551 -15.3472 -15.1559
    14.0929  14.7667  15.6859  15.8023  16.3930  16.4195  18.5984  18.8362
    19.6265  20.6944

          k = 0.1822 0.3644 0.4555 (  3993 PWs)   bands (ev):

   -69.0786 -38.9321 -35.1878 -35.1814 -35.1529 -15.4010 -15.3436 -15.1509
    14.1329  14.6418  15.6309  15.6791  16.6163  17.0542  18.3146  18.6776
    19.7038  20.9386

          k = 0.1822 0.4555 0.4555 (  4002 PWs)   bands (ev):

   -69.0780 -38.9251 -35.1891 -35.1886 -35.1521 -15.3934 -15.3923 -15.1459
    14.0262  14.5519  15.5431  15.5649  17.3041  17.4138  18.2038  18.3856
    19.8949  21.2322

          k = 0.2733 0.2733 0.2733 (  3998 PWs)   bands (ev):

   -69.0799 -38.9488 -35.1694 -35.1694 -35.1650 -15.2739 -15.2637 -15.2637
    13.9217  15.5557  15.5557  15.6302  15.8328  15.8328  18.9728  18.9728
    19.9423  19.9423

          k = 0.2733 0.2733 0.3644 (  3992 PWs)   bands (ev):

   -69.0790 -38.9382 -35.1797 -35.1678 -35.1672 -15.3527 -15.2576 -15.2574
    14.4162  15.2465  15.5532  15.7348  15.8360  16.0522  18.7164  18.7610
    19.7880  20.4433

          k = 0.2733 0.2733 0.4555 (  3990 PWs)   bands (ev):

   -69.0785 -38.9319 -35.1864 -35.1680 -35.1669 -15.4029 -15.2537 -15.2501
    14.6220  15.0235  15.5396  15.6850  16.0199  16.4931  18.3105  18.6328
    19.7334  20.7873

          k = 0.2733 0.3644 0.3644 (  3988 PWs)   bands (ev):

   -69.0781 -38.9274 -35.1806 -35.1788 -35.1667 -15.3442 -15.3403 -15.2493
    14.7098  15.1140  15.6028  15.7010  15.9353  16.1789  18.5500  18.5538
    20.0950  20.6449

          k = 0.2733 0.3644 0.4555 (  3992 PWs)   bands (ev):

   -69.0776 -38.9210 -35.1868 -35.1798 -35.1661 -15.3921 -15.3361 -15.2443
    14.6877  15.0287  15.5629  15.6208  16.2255  16.5898  18.2113  18.4663
    20.1580  20.9740

          k = 0.2733 0.4555 0.4555 (  4000 PWs)   bands (ev):

   -69.0771 -38.9145 -35.1872 -35.1870 -35.1653 -15.3860 -15.3854 -15.2398
    14.6130  14.9886  15.4960  15.5247  16.7517  16.7781  18.0383  18.3050
    20.3376  21.2697

          k = 0.3644 0.3644 0.3644 (  3999 PWs)   bands (ev):

   -69.0773 -38.9170 -35.1789 -35.1789 -35.1786 -15.3342 -15.3340 -15.3340
    15.1033  15.4527  15.5586  15.5586  15.9315  15.9315  18.3757  18.3757
    20.6505  20.6505

          k = 0.3644 0.3644 0.4555 (  4008 PWs)   bands (ev):

   -69.0767 -38.9108 -35.1860 -35.1786 -35.1779 -15.3840 -15.3302 -15.3281
    15.1018  15.2775  15.5899  15.7214  15.9196  16.2808  18.1153  18.2977
    20.6634  21.0669

          k = 0.3644 0.4555 0.4555 (  3994 PWs)   bands (ev):

   -69.0762 -38.9047 -35.1855 -35.1854 -35.1773 -15.3792 -15.3792 -15.3250
    15.2103  15.3630  15.5007  15.6106  16.2131  16.2641  17.9968  18.1631
    20.8879  21.2993

          k = 0.4555 0.4555 0.4555 (  3972 PWs)   bands (ev):

   -69.0757 -38.8988 -35.1846 -35.1844 -35.1844 -15.3754 -15.3754 -15.3750
    15.4441  15.5900  15.5900  15.8928  15.8928  15.9182  17.9868  17.9868
    21.3162  21.3162

     the Fermi energy is    17.7270 ev

!    total energy              =    -448.58627504 Ry
     estimated scf accuracy    <          6.4E-09 Ry
     smearing contrib. (-TS)   =       0.00004429 Ry
     internal energy E=F+TS    =    -448.58631932 Ry

     The total energy is F=E-TS. E is the sum of the following terms:
     one-electron contribution =    -150.50509531 Ry
     hartree contribution      =      91.33495449 Ry
     xc contribution           =     -52.89809587 Ry
     ewald contribution        =    -260.36409679 Ry
     one-center paw contrib.   =     -76.15398583 Ry

     convergence has been achieved in   9 iterations

     negative rho (up, down):  9.629E-04 0.000E+00

     Forces acting on atoms (cartesian axes, Ry/au):

     atom    1 type  1   force =     0.00000000    0.00000000    0.00000000
     atom    2 type  2   force =     0.00000000    0.00000000    0.00000000

     Total force =     0.000000     Total SCF correction =     0.000000


     Computing stress (Cartesian axis) and pressure


     negative rho (up, down):  9.629E-04 0.000E+00
          total   stress  (Ry/bohr**3)                   (kbar)     P=       44.57
   0.00030299   0.00000000   0.00000000           44.57        0.00        0.00
   0.00000000   0.00030299   0.00000000            0.00       44.57        0.00
   0.00000000   0.00000000   0.00030299            0.00        0.00       44.57

     Energy error            =      4.1E-05 Ry
     Gradient error          =      0.0E+00 Ry/Bohr
     Cell gradient error     =      8.0E-01 kbar

     number of scf cycles    =   2
     number of bfgs steps    =   1

     enthalpy           old  =    -448.5355977852 Ry
     enthalpy           new  =    -448.5356386983 Ry

     CASE: enthalpy          _new < enthalpy          _old

     new trust radius        =       0.0003338756 bohr
     new conv_thr            =            1.0E-10 Ry

     new unit-cell volume =    170.25433 a.u.^3 (    25.22909 Ang^3 )
     density =      6.82616 g/cm^3

CELL_PARAMETERS (alat=  5.55330037)
   0.998040643   0.000000000   0.000000000
   0.000000000   0.998040643   0.000000000
   0.000000000   0.000000000   0.998040643

ATOMIC_POSITIONS (crystal)
Fe               0.5000000000        0.5000000000        0.5000000000
Ti               0.0000000000        0.0000000000        0.0000000000



     Writing config-only to output data dir ./TiFe.save/ :
     XML data file
     NEW-OLD atomic charge density approx. for the potential
     New effective cutoffs (rho, wfc): 1742.69  124.48

     Check: negative core charge=   -0.000002

     negative rho (up, down):  9.631E-04 0.000E+00

     total cpu time spent up to now is       52.4 secs

     per-process dynamical memory:   153.3 Mb

     Self-consistent Calculation

     iteration #  1     ecut=   124.00 Ry     beta= 0.70
     Davidson diagonalization with overlap
     ethr =  1.00E-06,  avg # of iterations =  2.0

     Threshold (ethr) on eigenvalues was too large:
     Diagonalizing with lowered threshold

     Davidson diagonalization with overlap
     ethr =  4.04E-09,  avg # of iterations =  1.0

     negative rho (up, down):  9.623E-04 0.000E+00

     total cpu time spent up to now is       54.2 secs

     total energy              =    -448.58629367 Ry
     estimated scf accuracy    <       0.00000122 Ry

     iteration #  2     ecut=   124.00 Ry     beta= 0.70
     Davidson diagonalization with overlap
     ethr =  4.36E-09,  avg # of iterations =  5.4

     negative rho (up, down):  9.629E-04 0.000E+00

     total cpu time spent up to now is       55.4 secs

     total energy              =    -448.58628727 Ry
     estimated scf accuracy    <       0.00014341 Ry

     iteration #  3     ecut=   124.00 Ry     beta= 0.70
     Davidson diagonalization with overlap
     ethr =  4.36E-09,  avg # of iterations =  4.8

     negative rho (up, down):  9.629E-04 0.000E+00

     total cpu time spent up to now is       56.6 secs

     total energy              =    -448.58629474 Ry
     estimated scf accuracy    <       0.00000002 Ry

     iteration #  4     ecut=   124.00 Ry     beta= 0.70
     Davidson diagonalization with overlap
     ethr =  6.84E-11,  avg # of iterations =  4.5

     negative rho (up, down):  9.629E-04 0.000E+00

     total cpu time spent up to now is       57.8 secs

     total energy              =    -448.58629475 Ry
     estimated scf accuracy    <          2.7E-10 Ry

     iteration #  5     ecut=   124.00 Ry     beta= 0.70
     Davidson diagonalization with overlap
     ethr =  9.67E-13,  avg # of iterations =  5.1

     negative rho (up, down):  9.629E-04 0.000E+00

     total cpu time spent up to now is       59.1 secs

     total energy              =    -448.58629475 Ry
     estimated scf accuracy    <          1.1E-10 Ry

     iteration #  6     ecut=   124.00 Ry     beta= 0.70
     Davidson diagonalization with overlap
     ethr =  3.91E-13,  avg # of iterations =  2.4

     negative rho (up, down):  9.629E-04 0.000E+00

     total cpu time spent up to now is       60.1 secs

     End of self-consistent calculation

          k = 0.0000 0.0000 0.0000 (  3911 PWs)   bands (ev):

   -69.0936 -39.0193 -35.1549 -35.1549 -35.1549 -15.1118 -15.1118 -15.1118
    10.2550  13.9530  13.9530  16.7700  16.7700  16.7700  19.1281  19.1281
    21.0822  21.0822

          k = 0.0000 0.0000 0.0911 (  3947 PWs)   bands (ev):

   -69.0933 -39.0171 -35.1575 -35.1545 -35.1545 -15.1417 -15.1100 -15.1100
    10.4288  14.0367  14.0439  16.7572  16.7572  16.8082  19.0214  19.1683
    20.8292  20.8292

          k = 0.0000 0.0000 0.1822 (  3964 PWs)   bands (ev):

   -69.0926 -39.0113 -35.1643 -35.1535 -35.1535 -15.2213 -15.1052 -15.1052
    10.9330  14.2802  14.2819  16.7278  16.7278  16.9152  18.7132  19.2596
    20.2406  20.2406

          k = 0.0000 0.0000 0.2733 (  3988 PWs)   bands (ev):

   -69.0915 -39.0037 -35.1732 -35.1521 -35.1521 -15.3242 -15.0990 -15.0990
    11.7149  14.5509  14.6678  16.7029  16.7029  17.0671  18.2414  19.2952
    19.5893  19.5893

          k = 0.0000 0.0000 0.3644 (  4008 PWs)   bands (ev):

   -69.0906 -38.9968 -35.1813 -35.1508 -35.1508 -15.4176 -15.0932 -15.0932
    12.6784  14.6697  15.1460  16.6984  16.6984  17.2220  17.6811  19.0559
    19.0559  19.1064

          k = 0.0000 0.0000 0.4554 (  3992 PWs)   bands (ev):

   -69.0901 -38.9926 -35.1861 -35.1500 -35.1500 -15.4725 -15.0898 -15.0898
    13.6483  14.4148  15.5753  16.7076  16.7076  17.2016  17.3229  18.7540
    18.7540  18.7931

          k = 0.0000 0.0911 0.0911 (  3966 PWs)   bands (ev):

   -69.0930 -39.0148 -35.1585 -35.1560 -35.1541 -15.1428 -15.1364 -15.1082
    10.5991  14.1170  14.1348  16.6740  16.7365  16.9053  19.0062  19.1387
    20.5513  20.5765

          k = 0.0000 0.0911 0.1822 (  3978 PWs)   bands (ev):

   -69.0923 -39.0087 -35.1649 -35.1559 -35.1531 -15.2188 -15.1337 -15.1032
    11.0921  14.3366  14.3845  16.5929  16.6860  17.0240  18.7689  19.2184
    20.0032  20.0365

          k = 0.0000 0.0911 0.2733 (  3995 PWs)   bands (ev):

   -69.0913 -39.0006 -35.1739 -35.1551 -35.1517 -15.3206 -15.1266 -15.0966
    11.8531  14.6108  14.7404  16.5491  16.6292  17.1098  18.3671  19.1900
    19.4980  19.5324

          k = 0.0000 0.0911 0.3644 (  3991 PWs)   bands (ev):

   -69.0903 -38.9932 -35.1822 -35.1544 -35.1505 -15.4130 -15.1201 -15.0906
    12.7831  14.7214  15.1793  16.5552  16.5779  17.1159  17.9081  18.7749
    19.1960  19.3473

          k = 0.0000 0.0911 0.4554 (  3999 PWs)   bands (ev):

   -69.0898 -38.9888 -35.1871 -35.1539 -35.1497 -15.4674 -15.1162 -15.0870
    13.7072  14.4618  15.5705  16.5084  16.5930  17.0603  17.5789  18.4801
    19.0610  19.1534

          k = 0.0000 0.1822 0.1822 (  3972 PWs)   bands (ev):

   -69.0915 -39.0015 -35.1679 -35.1608 -35.1521 -15.2199 -15.2018 -15.0976
    11.5484  14.4841  14.6656  16.4170  16.5901  17.1021  18.8219  19.1766
    19.4823  19.7094

          k = 0.0000 0.1822 0.2733 (  4003 PWs)   bands (ev):

   -69.0905 -38.9922 -35.1760 -35.1631 -35.1508 -15.3111 -15.2001 -15.0903
    12.2378  14.6533  15.0469  16.2948  16.4989  17.0259  18.6459  18.9310
    19.3371  19.5292

          k = 0.0000 0.1822 0.3644 (  3997 PWs)   bands (ev):

   -69.0896 -38.9836 -35.1845 -35.1640 -35.1495 -15.4007 -15.1916 -15.0835
    13.0466  14.6956  15.4359  16.2587  16.4699  16.8140  18.3405  18.5892
    19.4651  19.5497

          k = 0.0000 0.1822 0.4554 (  3990 PWs)   bands (ev):

   -69.0891 -38.9785 -35.1897 -35.1644 -35.1488 -15.4536 -15.1864 -15.0795
    13.7935  14.4694  15.7176  16.3106  16.5042  16.5933  18.1691  18.3427
    19.4886  19.6478

          k = 0.0000 0.2733 0.2733 (  4000 PWs)   bands (ev):

   -69.0895 -38.9812 -35.1803 -35.1718 -35.1495 -15.3075 -15.2863 -15.0819
    12.7787  14.6323  15.5015  16.0846  16.4531  16.7559  18.7069  18.8770
    19.2374  19.7042

          k = 0.0000 0.2733 0.3644 (  3993 PWs)   bands (ev):

   -69.0886 -38.9710 -35.1878 -35.1763 -35.1483 -15.3847 -15.2840 -15.0743
    13.3337  14.5158  15.9501  15.9741  16.4284  16.6117  18.5230  18.8561
    19.4093  19.9829

          k = 0.0000 0.2733 0.4554 (  3996 PWs)   bands (ev):

   -69.0881 -38.9650 -35.1932 -35.1780 -35.1477 -15.4354 -15.2773 -15.0697
    13.7484  14.3303  15.9874  16.1630  16.1963  16.9678  18.2773  18.8106
    19.6251  20.2329

          k = 0.0000 0.3644 0.3644 (  4002 PWs)   bands (ev):

   -69.0877 -38.9594 -35.1918 -35.1867 -35.1472 -15.3751 -15.3629 -15.0657
    13.5209  14.3067  15.7858  16.0782  16.5603  17.0161  18.6517  19.2178
    19.2444  20.3912

          k = 0.0000 0.3644 0.4554 (  3999 PWs)   bands (ev):

   -69.0872 -38.9525 -35.1964 -35.1906 -35.1466 -15.4188 -15.3599 -15.0607
    13.6002  14.1677  15.7337  15.8362  16.9322  17.6661  18.4112  19.2795
    19.4596  20.6972

          k = 0.0000 0.4554 0.4554 (  3998 PWs)   bands (ev):

   -69.0866 -38.9450 -35.1985 -35.1978 -35.1459 -15.4096 -15.4079 -15.0553
    13.4879  14.0705  15.6118  15.6461  17.6327  18.1156  18.8012  18.9879
    19.5449  20.9713

          k = 0.0911 0.0911 0.0911 (  3959 PWs)   bands (ev):

   -69.0927 -39.0124 -35.1580 -35.1580 -35.1546 -15.1433 -15.1346 -15.1346
    10.7665  14.2101  14.2101  16.6513  16.6513  16.9834  19.0587  19.0587
    20.1302  20.8084

          k = 0.0911 0.0911 0.1822 (  3966 PWs)   bands (ev):

   -69.0920 -39.0059 -35.1651 -35.1570 -35.1545 -15.2162 -15.1333 -15.1297
    11.2498  14.4292  14.4503  16.5398  16.5913  17.0665  18.8281  19.1801
    19.6522  20.2172

          k = 0.0911 0.0911 0.2733 (  3992 PWs)   bands (ev):

   -69.0910 -38.9975 -35.1744 -35.1555 -35.1542 -15.3170 -15.1251 -15.1233
    11.9927  14.7165  14.7691  16.4809  16.5100  17.0616  18.4799  19.1320
    19.4560  19.5759

          k = 0.0911 0.0911 0.3644 (  3994 PWs)   bands (ev):

   -69.0901 -38.9897 -35.1829 -35.1542 -35.1539 -15.4086 -15.1175 -15.1175
    12.8934  14.8060  15.1797  16.4095  16.5121  16.9746  18.0910  18.8469
    19.0657  19.5547

          k = 0.0911 0.0911 0.4554 (  4007 PWs)   bands (ev):

   -69.0895 -38.9851 -35.1879 -35.1538 -35.1534 -15.4625 -15.1140 -15.1129
    13.7782  14.5296  15.5393  16.2841  16.6288  16.8839  17.8124  18.5615
    18.7863  19.6598

          k = 0.0911 0.1822 0.1822 (  3984 PWs)   bands (ev):

   -69.0912 -38.9986 -35.1675 -35.1616 -35.1547 -15.2166 -15.1999 -15.1255
    11.7016  14.5889  14.7160  16.3797  16.4813  17.0293  18.8921  19.1477
    19.3673  19.9307

          k = 0.0911 0.1822 0.2733 (  3994 PWs)   bands (ev):

   -69.0902 -38.9890 -35.1760 -35.1632 -35.1540 -15.3077 -15.1976 -15.1177
    12.3815  14.7735  15.0656  16.2509  16.3822  16.8460  18.7370  19.0536
    19.3729  19.5890

          k = 0.0911 0.1822 0.3644 (  4001 PWs)   bands (ev):

   -69.0893 -38.9802 -35.1849 -35.1637 -35.1532 -15.3968 -15.1890 -15.1105
    13.1733  14.8239  15.3890  16.1771  16.3748  16.6605  18.4959  18.7060
    19.2331  19.8563

          k = 0.0911 0.1822 0.4554 (  3993 PWs)   bands (ev):

   -69.0888 -38.9749 -35.1902 -35.1640 -35.1527 -15.4493 -15.1838 -15.1061
    13.8974  14.5813  15.6210  16.1106  16.4764  16.6045  18.3217  18.4140
    19.0297  20.2488

          k = 0.0911 0.2733 0.2733 (  3989 PWs)   bands (ev):

   -69.0892 -38.9779 -35.1799 -35.1721 -35.1530 -15.3036 -15.2844 -15.1091
    12.9266  14.7573  15.5111  16.0459  16.3217  16.5424  18.8254  19.0342
    19.2195  19.8403

          k = 0.0911 0.2733 0.3644 (  3985 PWs)   bands (ev):

   -69.0883 -38.9677 -35.1876 -35.1762 -35.1521 -15.3814 -15.2816 -15.1012
    13.4784  14.6422  15.8820  15.9371  16.3130  16.4749  18.6060  18.9471
    19.2912  20.2567

          k = 0.0911 0.2733 0.4554 (  4006 PWs)   bands (ev):

   -69.0878 -38.9616 -35.1933 -35.1777 -35.1515 -15.4321 -15.2750 -15.0965
    13.8787  14.4575  15.9031  15.9551  16.2669  16.8739  18.3152  18.9157
    19.2205  20.7436

          k = 0.0911 0.3644 0.3644 (  3992 PWs)   bands (ev):

   -69.0874 -38.9562 -35.1912 -35.1867 -35.1510 -15.3720 -15.3609 -15.0927
    13.6675  14.4323  15.7552  15.9885  16.5177  16.8415  18.6145  19.1200
    19.3192  20.7069

          k = 0.0911 0.3644 0.4554 (  4002 PWs)   bands (ev):

   -69.0869 -38.9494 -35.1961 -35.1901 -35.1503 -15.4162 -15.3578 -15.0877
    13.7373  14.2970  15.7012  15.7847  16.8571  17.4867  18.3681  19.0829
    19.4130  20.9401

          k = 0.0911 0.4554 0.4554 (  3993 PWs)   bands (ev):

   -69.0864 -38.9420 -35.1980 -35.1974 -35.1497 -15.4075 -15.4059 -15.0824
    13.6256  14.2000  15.5894  15.6193  17.5745  17.9728  18.5459  18.6457
    19.6234  21.1652

          k = 0.1822 0.1822 0.1822 (  3989 PWs)   bands (ev):

   -69.0905 -38.9908 -35.1663 -35.1663 -35.1592 -15.2126 -15.1949 -15.1949
    12.1374  14.8591  14.8591  16.2803  16.2803  16.7646  19.0625  19.0625
    19.4253  20.1754

          k = 0.1822 0.1822 0.2733 (  3992 PWs)   bands (ev):

   -69.0895 -38.9804 -35.1762 -35.1648 -35.1614 -15.2987 -15.1933 -15.1882
    12.7821  15.0697  15.1357  16.1423  16.1471  16.4482  18.9332  19.1395
    19.5602  19.7341

          k = 0.1822 0.1822 0.3644 (  3994 PWs)   bands (ev):

   -69.0886 -38.9709 -35.1858 -35.1634 -35.1627 -15.3863 -15.1822 -15.1821
    13.5053  15.1134  15.3045  16.0068  16.1775  16.3756  18.7972  18.8746
    19.0814  20.3004

          k = 0.1822 0.1822 0.4554 (  3986 PWs)   bands (ev):

   -69.0880 -38.9653 -35.1916 -35.1635 -35.1625 -15.4380 -15.1785 -15.1755
    14.1269  14.7901  15.4937  15.8864  16.2955  16.5587  18.4613  18.7208
    18.8078  20.6719

          k = 0.1822 0.2733 0.2733 (  3994 PWs)   bands (ev):

   -69.0885 -38.9692 -35.1786 -35.1732 -35.1625 -15.2932 -15.2792 -15.1816
    13.3405  15.0977  15.5325  15.9463  16.0268  16.1064  18.9551  19.1414
    19.4598  20.2175

          k = 0.1822 0.2733 0.3644 (  3988 PWs)   bands (ev):

   -69.0876 -38.9588 -35.1874 -35.1758 -35.1620 -15.3726 -15.2750 -15.1731
    13.8804  14.9734  15.6803  15.8317  16.0841  16.1976  18.7194  18.9691
    19.3511  20.5207

          k = 0.1822 0.2733 0.4554 (  3991 PWs)   bands (ev):

   -69.0871 -38.9526 -35.1936 -35.1765 -35.1616 -15.4231 -15.2688 -15.1680
    14.2303  14.7709  15.6525  15.7775  16.1724  16.6521  18.3595  18.8047
    19.2592  20.7440

          k = 0.1822 0.3644 0.3644 (  3990 PWs)   bands (ev):

   -69.0867 -38.9476 -35.1899 -35.1865 -35.1610 -15.3637 -15.3557 -15.1647
    14.0861  14.7600  15.6790  15.7954  16.3856  16.4119  18.5900  18.8277
    19.6177  20.6851

          k = 0.1822 0.3644 0.4554 (  3993 PWs)   bands (ev):

   -69.0862 -38.9409 -35.1953 -35.1889 -35.1604 -15.4095 -15.3521 -15.1597
    14.1264  14.6351  15.6241  15.6723  16.6086  17.0462  18.3063  18.6692
    19.6951  20.9291

          k = 0.1822 0.4554 0.4554 (  4002 PWs)   bands (ev):

   -69.0856 -38.9340 -35.1966 -35.1961 -35.1597 -15.4019 -15.4008 -15.1548
    14.0199  14.5452  15.5363  15.5581  17.2962  17.4056  18.1956  18.3773
    19.8860  21.2226

          k = 0.2733 0.2733 0.2733 (  3998 PWs)   bands (ev):

   -69.0875 -38.9577 -35.1769 -35.1769 -35.1725 -15.2825 -15.2724 -15.2724
    13.9141  15.5489  15.5489  15.6234  15.8258  15.8258  18.9642  18.9642
    19.9334  19.9334

          k = 0.2733 0.2733 0.3644 (  3992 PWs)   bands (ev):

   -69.0866 -38.9471 -35.1873 -35.1754 -35.1748 -15.3613 -15.2662 -15.2661
    14.4088  15.2397  15.5464  15.7278  15.8289  16.0451  18.7080  18.7526
    19.7792  20.4341

          k = 0.2733 0.2733 0.4554 (  3990 PWs)   bands (ev):

   -69.0861 -38.9408 -35.1939 -35.1756 -35.1745 -15.4114 -15.2624 -15.2588
    14.6151  15.0166  15.5329  15.6779  16.0126  16.4856  18.3022  18.6245
    19.7247  20.7779

          k = 0.2733 0.3644 0.3644 (  3988 PWs)   bands (ev):

   -69.0857 -38.9363 -35.1881 -35.1863 -35.1742 -15.3527 -15.3489 -15.2579
    14.7028  15.1072  15.5960  15.6941  15.9280  16.1716  18.5417  18.5454
    20.0860  20.6356

          k = 0.2733 0.3644 0.4554 (  3992 PWs)   bands (ev):

   -69.0852 -38.9299 -35.1944 -35.1873 -35.1736 -15.4006 -15.3447 -15.2530
    14.6810  15.0219  15.5561  15.6138  16.2180  16.5822  18.2031  18.4580
    20.1490  20.9645

          k = 0.2733 0.4554 0.4554 (  4000 PWs)   bands (ev):

   -69.0847 -38.9234 -35.1947 -35.1945 -35.1728 -15.3945 -15.3939 -15.2485
    14.6064  14.9817  15.4893  15.5179  16.7439  16.7704  18.0302  18.2968
    20.3285  21.2600

          k = 0.3644 0.3644 0.3644 (  3999 PWs)   bands (ev):

   -69.0849 -38.9259 -35.1864 -35.1864 -35.1861 -15.3427 -15.3425 -15.3425
    15.0966  15.4451  15.5518  15.5518  15.9243  15.9243  18.3675  18.3675
    20.6413  20.6413

          k = 0.3644 0.3644 0.4554 (  4008 PWs)   bands (ev):

   -69.0843 -38.9197 -35.1935 -35.1861 -35.1854 -15.3925 -15.3388 -15.3367
    15.0951  15.2706  15.5830  15.7144  15.9122  16.2734  18.1072  18.2895
    20.6541  21.0573

          k = 0.3644 0.4554 0.4554 (  3994 PWs)   bands (ev):

   -69.0838 -38.9136 -35.1930 -35.1929 -35.1849 -15.3877 -15.3877 -15.3336
    15.2036  15.3561  15.4939  15.6036  16.2057  16.2567  17.9887  18.1549
    20.8785  21.2896

          k = 0.4554 0.4554 0.4554 (  3972 PWs)   bands (ev):

   -69.0833 -38.9078 -35.1921 -35.1919 -35.1919 -15.3839 -15.3839 -15.3835
    15.4372  15.5830  15.5830  15.8857  15.8857  15.9110  17.9788  17.9788
    21.3065  21.3065

     the Fermi energy is    17.7188 ev

!    total energy              =    -448.58629475 Ry
     estimated scf accuracy    <          4.4E-11 Ry
     smearing contrib. (-TS)   =       0.00004465 Ry
     internal energy E=F+TS    =    -448.58633939 Ry

     The total energy is F=E-TS. E is the sum of the following terms:
     one-electron contribution =    -150.55584859 Ry
     hartree contribution      =      91.35163303 Ry
     xc contribution           =     -52.89736203 Ry
     ewald contribution        =    -260.33078374 Ry
     one-center paw contrib.   =     -76.15397807 Ry

     convergence has been achieved in   6 iterations

     negative rho (up, down):  9.629E-04 0.000E+00

     Forces acting on atoms (cartesian axes, Ry/au):

     atom    1 type  1   force =     0.00000000    0.00000000    0.00000000
     atom    2 type  2   force =     0.00000000    0.00000000    0.00000000

     Total force =     0.000000     Total SCF correction =     0.000000


     Computing stress (Cartesian axis) and pressure


     negative rho (up, down):  9.629E-04 0.000E+00
          total   stress  (Ry/bohr**3)                   (kbar)     P=       43.96
   0.00029883   0.00000000   0.00000000           43.96        0.00        0.00
   0.00000000   0.00029883   0.00000000            0.00       43.96        0.00
   0.00000000   0.00000000   0.00029883            0.00        0.00       43.96

     Energy error            =      2.7E-07 Ry
     Gradient error          =      0.0E+00 Ry/Bohr
     Cell gradient error     =      1.9E-01 kbar

     bfgs converged in   3 scf cycles and   2 bfgs steps
     (criteria: energy <  1.0E-04 Ry, force <  1.0E-03 Ry/Bohr, cell <  5.0E-01 kbar)

     End of BFGS Geometry Optimization

     Final enthalpy           =    -448.5356389685 Ry

     File ./TiFe.bfgs deleted, as requested
Begin final coordinates
     new unit-cell volume =    170.25433 a.u.^3 (    25.22909 Ang^3 )
     density =      6.82616 g/cm^3

CELL_PARAMETERS (alat=  5.55330037)
   0.998040643   0.000000000   0.000000000
   0.000000000   0.998040643   0.000000000
   0.000000000   0.000000000   0.998040643

ATOMIC_POSITIONS (crystal)
Fe               0.5000000000        0.5000000000        0.5000000000
Ti               0.0000000000        0.0000000000        0.0000000000
End final coordinates



     Writing config-only to output data dir ./TiFe.save/ :
     XML data file

     Final scf calculation at the relaxed structure.
     The G-vectors are recalculated for the final unit cell
     Results may differ from those at the preceding step.

     Parallelization info
     --------------------
     sticks:   dense  smooth     PW     G-vecs:    dense   smooth      PW
     Min         529     150     43                26019     3944     617
     Max         530     151     44                26022     3949     620
     Sum        4237    1201    349               208165    31559    4945

     Using Slab Decomposition



     bravais-lattice index     =            0
     lattice parameter (alat)  =       5.5533  a.u.
     unit-cell volume          =     170.2543 (a.u.)^3
     number of atoms/cell      =            2
     number of atomic types    =            2
     number of electrons       =        28.00
     number of Kohn-Sham states=           18
     kinetic-energy cutoff     =     124.0000  Ry
     charge density cutoff     =    1736.0000  Ry
     scf convergence threshold =      1.0E-10
     mixing beta               =       0.7000
     number of iterations used =            8  plain     mixing
     press convergence thresh. =      5.0E-01
     Exchange-correlation= PBE
                           (   1   4   3   4   0   0   0)

     celldm(1)=   5.553300  celldm(2)=   0.000000  celldm(3)=   0.000000
     celldm(4)=   0.000000  celldm(5)=   0.000000  celldm(6)=   0.000000

     crystal axes: (cart. coord. in units of alat)
               a(1) = (   0.998041   0.000000   0.000000 )  
               a(2) = (   0.000000   0.998041   0.000000 )  
               a(3) = (   0.000000   0.000000   0.998041 )  

     reciprocal axes: (cart. coord. in units 2 pi/alat)
               b(1) = (  1.001963  0.000000  0.000000 )  
               b(2) = (  0.000000  1.001963  0.000000 )  
               b(3) = (  0.000000  0.000000  1.001963 )  


     PseudoPot. # 1 for Fe read from file:
     ../../pseudos/Fe.pbe-spn-kjpaw_psl.0.2.1.UPF
     MD5 check sum: e86618425769142926afa95317d90200
     Pseudo is Projector augmented-wave + core cor, Zval = 16.0
     Generated using "atomic" code by A. Dal Corso  v.5.0.99 svn rev. 10869
     Shape of augmentation charge: PSQ
     Using radial grid of 1191 points,  6 beta functions with: 
                l(1) =   0
                l(2) =   0
                l(3) =   1
                l(4) =   1
                l(5) =   2
                l(6) =   2
     Q(r) pseudized with 0 coefficients 


     PseudoPot. # 2 for Ti read from file:
     ../../pseudos/ti_pbe_v1.4.uspp.F.UPF
     MD5 check sum: 88a00a6731bd790ddea75d31a80cb452
     Pseudo is Ultrasoft + core correction, Zval = 12.0
     Generated by new atomic code, or converted to UPF format
     Using radial grid of  851 points,  6 beta functions with: 
                l(1) =   0
                l(2) =   0
                l(3) =   1
                l(4) =   1
                l(5) =   2
                l(6) =   2
[...]
     estimated scf accuracy    <       0.00000044 Ry

     iteration # 31     ecut=   124.00 Ry     beta= 0.70
     Davidson diagonalization with overlap
     ethr =  6.68E-10,  avg # of iterations =  1.9

     negative rho (up, down):  9.628E-04 0.000E+00

     total cpu time spent up to now is       97.1 secs

     total energy              =    -448.58628417 Ry
     estimated scf accuracy    <       0.00000014 Ry

     iteration # 32     ecut=   124.00 Ry     beta= 0.70
     Davidson diagonalization with overlap
     ethr =  5.08E-10,  avg # of iterations =  2.5

     negative rho (up, down):  9.628E-04 0.000E+00

     total cpu time spent up to now is       98.1 secs

     total energy              =    -448.58628418 Ry
     estimated scf accuracy    <          8.5E-09 Ry

     iteration # 33     ecut=   124.00 Ry     beta= 0.70
     Davidson diagonalization with overlap
     ethr =  3.03E-11,  avg # of iterations =  3.5

     negative rho (up, down):  9.628E-04 0.000E+00

     total cpu time spent up to now is       99.1 secs

     total energy              =    -448.58628419 Ry
     estimated scf accuracy    <          1.9E-09 Ry

     iteration # 34     ecut=   124.00 Ry     beta= 0.70
     Davidson diagonalization with overlap
     ethr =  6.62E-12,  avg # of iterations =  2.5

     negative rho (up, down):  9.628E-04 0.000E+00

     total cpu time spent up to now is      100.0 secs

     total energy              =    -448.58628419 Ry
     estimated scf accuracy    <          1.6E-09 Ry

     iteration # 35     ecut=   124.00 Ry     beta= 0.70
     Davidson diagonalization with overlap
     ethr =  5.68E-12,  avg # of iterations =  1.2

     negative rho (up, down):  9.628E-04 0.000E+00

     total cpu time spent up to now is      100.9 secs

     total energy              =    -448.58628419 Ry
     estimated scf accuracy    <          3.6E-09 Ry

     iteration # 36     ecut=   124.00 Ry     beta= 0.70
     Davidson diagonalization with overlap
     ethr =  5.68E-12,  avg # of iterations =  1.7

     negative rho (up, down):  9.627E-04 0.000E+00

     total cpu time spent up to now is      101.8 secs

     total energy              =    -448.58628419 Ry
     estimated scf accuracy    <          4.4E-10 Ry

     iteration # 37     ecut=   124.00 Ry     beta= 0.70
     Davidson diagonalization with overlap
     ethr =  1.57E-12,  avg # of iterations =  1.5

     negative rho (up, down):  9.628E-04 0.000E+00

     total cpu time spent up to now is      102.7 secs

     total energy              =    -448.58628419 Ry
     estimated scf accuracy    <          8.2E-10 Ry

     iteration # 38     ecut=   124.00 Ry     beta= 0.70
     Davidson diagonalization with overlap
     ethr =  1.57E-12,  avg # of iterations =  3.2

     negative rho (up, down):  9.628E-04 0.000E+00

     total cpu time spent up to now is      103.7 secs

     End of self-consistent calculation

          k = 0.0000 0.0000 0.0000 (  3911 PWs)   bands (ev):

   -69.0936 -39.0193 -35.1549 -35.1549 -35.1549 -15.1118 -15.1118 -15.1118
    10.2551  13.9530  13.9530  16.7700  16.7700  16.7700  19.1281  19.1281
    21.0822  21.0822

          k = 0.0000 0.0000 0.0911 (  3927 PWs)   bands (ev):

   -69.0933 -39.0171 -35.1575 -35.1545 -35.1545 -15.1417 -15.1100 -15.1100
    10.4289  14.0367  14.0439  16.7572  16.7572  16.8082  19.0215  19.1683
    20.8292  20.8292

          k = 0.0000 0.0000 0.1822 (  3936 PWs)   bands (ev):

   -69.0925 -39.0113 -35.1643 -35.1534 -35.1534 -15.2212 -15.1052 -15.1052
    10.9330  14.2802  14.2819  16.7279  16.7279  16.9152  18.7132  19.2596
    20.2406  20.2406

          k = 0.0000 0.0000 0.2733 (  3972 PWs)   bands (ev):

   -69.0915 -39.0037 -35.1732 -35.1521 -35.1521 -15.3242 -15.0990 -15.0990
    11.7149  14.5509  14.6678  16.7029  16.7029  17.0671  18.2414  19.2952
    19.5893  19.5893

          k = 0.0000 0.0000 0.3644 (  3976 PWs)   bands (ev):

   -69.0906 -38.9968 -35.1813 -35.1508 -35.1508 -15.4175 -15.0932 -15.0932
    12.6784  14.6698  15.1460  16.6984  16.6984  17.2220  17.6811  19.0559
    19.0559  19.1064

          k = 0.0000 0.0000 0.4554 (  3984 PWs)   bands (ev):

   -69.0901 -38.9926 -35.1861 -35.1500 -35.1500 -15.4725 -15.0898 -15.0898
    13.6483  14.4148  15.5753  16.7076  16.7076  17.2016  17.3229  18.7541
    18.7541  18.7931

          k = 0.0000 0.0911 0.0911 (  3938 PWs)   bands (ev):

   -69.0930 -39.0148 -35.1584 -35.1559 -35.1541 -15.1428 -15.1364 -15.1081
    10.5991  14.1170  14.1348  16.6740  16.7365  16.9053  19.0062  19.1387
    20.5513  20.5765

          k = 0.0000 0.0911 0.1822 (  3956 PWs)   bands (ev):

   -69.0922 -39.0086 -35.1648 -35.1559 -35.1531 -15.2188 -15.1337 -15.1031
    11.0921  14.3366  14.3845  16.5929  16.6860  17.0240  18.7689  19.2185
    20.0032  20.0365

          k = 0.0000 0.0911 0.2733 (  3959 PWs)   bands (ev):

   -69.0912 -39.0006 -35.1739 -35.1551 -35.1517 -15.3206 -15.1266 -15.0966
    11.8531  14.6108  14.7404  16.5491  16.6292  17.1098  18.3671  19.1900
    19.4980  19.5324

          k = 0.0000 0.0911 0.3644 (  3974 PWs)   bands (ev):

   -69.0903 -38.9932 -35.1821 -35.1544 -35.1504 -15.4130 -15.1201 -15.0906
    12.7831  14.7214  15.1793  16.5553  16.5779  17.1159  17.9081  18.7749
    19.1960  19.3473

          k = 0.0000 0.0911 0.4554 (  3975 PWs)   bands (ev):

   -69.0898 -38.9888 -35.1870 -35.1539 -35.1497 -15.4673 -15.1162 -15.0870
    13.7072  14.4618  15.5705  16.5084  16.5930  17.0603  17.5789  18.4801
    19.0610  19.1534

          k = 0.0000 0.1822 0.1822 (  3960 PWs)   bands (ev):

   -69.0915 -39.0015 -35.1679 -35.1607 -35.1521 -15.2199 -15.2018 -15.0976
    11.5484  14.4841  14.6656  16.4170  16.5901  17.1021  18.8219  19.1767
    19.4823  19.7094

          k = 0.0000 0.1822 0.2733 (  3982 PWs)   bands (ev):

   -69.0905 -38.9922 -35.1759 -35.1630 -35.1507 -15.3111 -15.2001 -15.0903
    12.2378  14.6533  15.0469  16.2948  16.4989  17.0259  18.6459  18.9310
    19.3371  19.5292

          k = 0.0000 0.1822 0.3644 (  3978 PWs)   bands (ev):

   -69.0896 -38.9836 -35.1845 -35.1639 -35.1495 -15.4007 -15.1915 -15.0835
    13.0466  14.6956  15.4359  16.2587  16.4699  16.8140  18.3405  18.5892
    19.4651  19.5497

          k = 0.0000 0.1822 0.4554 (  3971 PWs)   bands (ev):

   -69.0890 -38.9785 -35.1897 -35.1644 -35.1488 -15.4535 -15.1864 -15.0795
    13.7935  14.4695  15.7176  16.3106  16.5042  16.5933  18.1691  18.3427
    19.4886  19.6478

          k = 0.0000 0.2733 0.2733 (  3974 PWs)   bands (ev):

   -69.0895 -38.9812 -35.1803 -35.1717 -35.1495 -15.3075 -15.2863 -15.0819
    12.7787  14.6323  15.5016  16.0846  16.4532  16.7559  18.7070  18.8770
    19.2374  19.7042

          k = 0.0000 0.2733 0.3644 (  3971 PWs)   bands (ev):

   -69.0886 -38.9710 -35.1877 -35.1763 -35.1483 -15.3847 -15.2840 -15.0743
    13.3337  14.5158  15.9501  15.9741  16.4284  16.6118  18.5231  18.8561
    19.4093  19.9829

          k = 0.0000 0.2733 0.4554 (  3975 PWs)   bands (ev):

   -69.0881 -38.9650 -35.1931 -35.1780 -35.1476 -15.4354 -15.2773 -15.0697
    13.7484  14.3303  15.9874  16.1630  16.1963  16.9678  18.2773  18.8106
    19.6251  20.2329

          k = 0.0000 0.3644 0.3644 (  3970 PWs)   bands (ev):

   -69.0877 -38.9594 -35.1917 -35.1867 -35.1472 -15.3751 -15.3629 -15.0657
    13.5209  14.3067  15.7858  16.0782  16.5603  17.0162  18.6517  19.2179
    19.2444  20.3913

          k = 0.0000 0.3644 0.4554 (  3982 PWs)   bands (ev):

   -69.0872 -38.9525 -35.1964 -35.1905 -35.1466 -15.4187 -15.3599 -15.0606
    13.6002  14.1677  15.7337  15.8362  16.9322  17.6661  18.4112  19.2795
    19.4596  20.6973

          k = 0.0000 0.4554 0.4554 (  3974 PWs)   bands (ev):

   -69.0866 -38.9450 -35.1985 -35.1978 -35.1459 -15.4095 -15.4079 -15.0553
    13.4879  14.0705  15.6118  15.6461  17.6327  18.1156  18.8012  18.9879
    19.5450  20.9714

          k = 0.0911 0.0911 0.0911 (  3950 PWs)   bands (ev):

   -69.0927 -39.0124 -35.1580 -35.1580 -35.1546 -15.1433 -15.1346 -15.1346
    10.7665  14.2101  14.2101  16.6513  16.6513  16.9834  19.0588  19.0588
    20.1302  20.8084

          k = 0.0911 0.0911 0.1822 (  3943 PWs)   bands (ev):

   -69.0920 -39.0059 -35.1650 -35.1569 -35.1545 -15.2162 -15.1333 -15.1297
    11.2498  14.4292  14.4503  16.5399  16.5913  17.0665  18.8281  19.1801
    19.6522  20.2172

          k = 0.0911 0.0911 0.2733 (  3965 PWs)   bands (ev):

   -69.0910 -38.9974 -35.1743 -35.1555 -35.1542 -15.3170 -15.1251 -15.1233
    11.9927  14.7165  14.7691  16.4809  16.5100  17.0616  18.4799  19.1320
    19.4561  19.5759

          k = 0.0911 0.0911 0.3644 (  3972 PWs)   bands (ev):

   -69.0900 -38.9897 -35.1828 -35.1542 -35.1539 -15.4086 -15.1175 -15.1174
    12.8934  14.8060  15.1797  16.4095  16.5121  16.9747  18.0911  18.8469
    19.0657  19.5547

          k = 0.0911 0.0911 0.4554 (  3982 PWs)   bands (ev):

   -69.0895 -38.9850 -35.1879 -35.1537 -35.1534 -15.4625 -15.1140 -15.1129
    13.7782  14.5297  15.5393  16.2841  16.6288  16.8839  17.8124  18.5615
    18.7863  19.6598

          k = 0.0911 0.1822 0.1822 (  3966 PWs)   bands (ev):

   -69.0912 -38.9986 -35.1675 -35.1616 -35.1547 -15.2166 -15.1999 -15.1255
    11.7016  14.5889  14.7160  16.3797  16.4813  17.0293  18.8922  19.1477
    19.3673  19.9308

          k = 0.0911 0.1822 0.2733 (  3977 PWs)   bands (ev):

   -69.0902 -38.9890 -35.1759 -35.1632 -35.1540 -15.3077 -15.1976 -15.1177
    12.3815  14.7735  15.0656  16.2509  16.3822  16.8460  18.7370  19.0536
    19.3729  19.5890

          k = 0.0911 0.1822 0.3644 (  3964 PWs)   bands (ev):

   -69.0893 -38.9802 -35.1848 -35.1637 -35.1532 -15.3968 -15.1890 -15.1104
    13.1733  14.8239  15.3890  16.1771  16.3748  16.6605  18.4959  18.7060
    19.2331  19.8563

          k = 0.0911 0.1822 0.4554 (  3974 PWs)   bands (ev):

   -69.0888 -38.9749 -35.1902 -35.1640 -35.1526 -15.4493 -15.1838 -15.1061
    13.8974  14.5813  15.6210  16.1106  16.4764  16.6045  18.3217  18.4140
    19.0298  20.2488

          k = 0.0911 0.2733 0.2733 (  3979 PWs)   bands (ev):

   -69.0892 -38.9779 -35.1798 -35.1721 -35.1530 -15.3036 -15.2844 -15.1091
    12.9266  14.7573  15.5111  16.0459  16.3217  16.5424  18.8254  19.0342
    19.2195  19.8403

          k = 0.0911 0.2733 0.3644 (  3962 PWs)   bands (ev):

   -69.0883 -38.9677 -35.1876 -35.1762 -35.1520 -15.3814 -15.2816 -15.1012
    13.4784  14.6422  15.8820  15.9371  16.3130  16.4749  18.6060  18.9471
    19.2913  20.2567

          k = 0.0911 0.2733 0.4554 (  3975 PWs)   bands (ev):

   -69.0878 -38.9616 -35.1932 -35.1776 -35.1514 -15.4321 -15.2750 -15.0965
    13.8787  14.4575  15.9031  15.9552  16.2670  16.8739  18.3152  18.9157
    19.2205  20.7436

          k = 0.0911 0.3644 0.3644 (  3970 PWs)   bands (ev):

   -69.0874 -38.9562 -35.1912 -35.1866 -35.1510 -15.3720 -15.3609 -15.0927
    13.6675  14.4323  15.7552  15.9885  16.5177  16.8416  18.6145  19.1200
    19.3192  20.7069

          k = 0.0911 0.3644 0.4554 (  3980 PWs)   bands (ev):

   -69.0869 -38.9493 -35.1961 -35.1901 -35.1503 -15.4162 -15.3578 -15.0877
    13.7373  14.2971  15.7012  15.7847  16.8571  17.4867  18.3681  19.0829
    19.4130  20.9402

          k = 0.0911 0.4554 0.4554 (  3972 PWs)   bands (ev):

   -69.0864 -38.9420 -35.1980 -35.1973 -35.1496 -15.4075 -15.4059 -15.0824
    13.6256  14.2000  15.5894  15.6193  17.5745  17.9728  18.5460  18.6457
    19.6235  21.1652

          k = 0.1822 0.1822 0.1822 (  3977 PWs)   bands (ev):

   -69.0905 -38.9907 -35.1663 -35.1663 -35.1592 -15.2126 -15.1949 -15.1949
    12.1374  14.8591  14.8591  16.2804  16.2804  16.7646  19.0625  19.0625
    19.4253  20.1755

          k = 0.1822 0.1822 0.2733 (  3966 PWs)   bands (ev):

   -69.0895 -38.9804 -35.1761 -35.1648 -35.1613 -15.2987 -15.1932 -15.1882
    12.7821  15.0697  15.1357  16.1423  16.1471  16.4482  18.9333  19.1395
    19.5603  19.7341

          k = 0.1822 0.1822 0.3644 (  3968 PWs)   bands (ev):

   -69.0886 -38.9709 -35.1858 -35.1633 -35.1627 -15.3863 -15.1822 -15.1821
    13.5053  15.1134  15.3045  16.0068  16.1775  16.3756  18.7972  18.8746
    19.0814  20.3004

          k = 0.1822 0.1822 0.4554 (  3963 PWs)   bands (ev):

   -69.0880 -38.9653 -35.1916 -35.1634 -35.1625 -15.4380 -15.1785 -15.1754
    14.1269  14.7901  15.4937  15.8864  16.2955  16.5587  18.4614  18.7208
    18.8079  20.6719

          k = 0.1822 0.2733 0.2733 (  3959 PWs)   bands (ev):

   -69.0885 -38.9692 -35.1786 -35.1732 -35.1624 -15.2932 -15.2792 -15.1816
    13.3405  15.0977  15.5325  15.9463  16.0268  16.1065  18.9551  19.1414
    19.4598  20.2175

          k = 0.1822 0.2733 0.3644 (  3962 PWs)   bands (ev):

   -69.0876 -38.9588 -35.1873 -35.1758 -35.1620 -15.3726 -15.2749 -15.1731
    13.8804  14.9734  15.6804  15.8317  16.0841  16.1976  18.7195  18.9691
    19.3511  20.5207

          k = 0.1822 0.2733 0.4554 (  3968 PWs)   bands (ev):

   -69.0870 -38.9526 -35.1935 -35.1765 -35.1616 -15.4231 -15.2688 -15.1679
    14.2303  14.7709  15.6526  15.7775  16.1724  16.6522  18.3595  18.8048
    19.2592  20.7440

          k = 0.1822 0.3644 0.3644 (  3971 PWs)   bands (ev):

   -69.0867 -38.9476 -35.1898 -35.1865 -35.1610 -15.3636 -15.3557 -15.1647
    14.0861  14.7600  15.6791  15.7954  16.3856  16.4119  18.5900  18.8277
    19.6178  20.6851

          k = 0.1822 0.3644 0.4554 (  3971 PWs)   bands (ev):

   -69.0862 -38.9409 -35.1953 -35.1889 -35.1604 -15.4095 -15.3521 -15.1597
    14.1264  14.6351  15.6241  15.6723  16.6086  17.0463  18.3063  18.6692
    19.6951  20.9291

          k = 0.1822 0.4554 0.4554 (  3967 PWs)   bands (ev):

   -69.0856 -38.9340 -35.1966 -35.1961 -35.1597 -15.4018 -15.4007 -15.1547
    14.0199  14.5452  15.5363  15.5582  17.2962  17.4056  18.1956  18.3773
    19.8860  21.2226

          k = 0.2733 0.2733 0.2733 (  3980 PWs)   bands (ev):

   -69.0875 -38.9577 -35.1769 -35.1769 -35.1725 -15.2825 -15.2724 -15.2724
    13.9141  15.5489  15.5489  15.6234  15.8258  15.8258  18.9642  18.9642
    19.9335  19.9335

          k = 0.2733 0.2733 0.3644 (  3966 PWs)   bands (ev):

   -69.0866 -38.9471 -35.1872 -35.1753 -35.1747 -15.3612 -15.2662 -15.2661
    14.4089  15.2397  15.5464  15.7278  15.8289  16.0451  18.7080  18.7526
    19.7792  20.4342

          k = 0.2733 0.2733 0.4554 (  3957 PWs)   bands (ev):

   -69.0861 -38.9408 -35.1939 -35.1755 -35.1744 -15.4114 -15.2623 -15.2587
    14.6151  15.0166  15.5329  15.6779  16.0126  16.4856  18.3022  18.6245
    19.7247  20.7780

          k = 0.2733 0.3644 0.3644 (  3972 PWs)   bands (ev):

   -69.0857 -38.9363 -35.1880 -35.1863 -35.1742 -15.3527 -15.3488 -15.2579
    14.7028  15.1072  15.5960  15.6941  15.9280  16.1716  18.5417  18.5454
    20.0860  20.6356

          k = 0.2733 0.3644 0.4554 (  3971 PWs)   bands (ev):

   -69.0852 -38.9299 -35.1943 -35.1873 -35.1736 -15.4006 -15.3447 -15.2530
    14.6810  15.0219  15.5561  15.6138  16.2180  16.5822  18.2031  18.4580
    20.1491  20.9646

          k = 0.2733 0.4554 0.4554 (  3976 PWs)   bands (ev):

   -69.0847 -38.9234 -35.1947 -35.1944 -35.1728 -15.3945 -15.3939 -15.2485
    14.6065  14.9817  15.4893  15.5179  16.7440  16.7704  18.0302  18.2968
    20.3285  21.2600

          k = 0.3644 0.3644 0.3644 (  3978 PWs)   bands (ev):

   -69.0848 -38.9259 -35.1864 -35.1864 -35.1860 -15.3427 -15.3425 -15.3425
    15.0966  15.4452  15.5518  15.5518  15.9243  15.9243  18.3675  18.3675
    20.6413  20.6413

          k = 0.3644 0.3644 0.4554 (  3988 PWs)   bands (ev):

   -69.0843 -38.9197 -35.1934 -35.1861 -35.1854 -15.3925 -15.3388 -15.3367
    15.0951  15.2706  15.5830  15.7144  15.9122  16.2734  18.1072  18.2895
    20.6541  21.0574

          k = 0.3644 0.4554 0.4554 (  3969 PWs)   bands (ev):

   -69.0838 -38.9136 -35.1929 -35.1929 -35.1848 -15.3877 -15.3877 -15.3336
    15.2036  15.3561  15.4939  15.6036  16.2057  16.2567  17.9887  18.1550
    20.8785  21.2897

          k = 0.4554 0.4554 0.4554 (  3966 PWs)   bands (ev):

   -69.0833 -38.9078 -35.1921 -35.1919 -35.1919 -15.3839 -15.3839 -15.3835
    15.4372  15.5830  15.5830  15.8857  15.8857  15.9110  17.9788  17.9788
    21.3065  21.3065

     the Fermi energy is    17.7189 ev

!    total energy              =    -448.58628419 Ry
     estimated scf accuracy    <          4.9E-11 Ry
     smearing contrib. (-TS)   =       0.00004465 Ry
     internal energy E=F+TS    =    -448.58632883 Ry

     The total energy is F=E-TS. E is the sum of the following terms:
     one-electron contribution =    -150.55583549 Ry
     hartree contribution      =      91.35161304 Ry
     xc contribution           =     -52.89734652 Ry
     ewald contribution        =    -260.33078374 Ry
     one-center paw contrib.   =     -76.15397613 Ry

     convergence has been achieved in  38 iterations

     negative rho (up, down):  9.628E-04 0.000E+00

     Forces acting on atoms (cartesian axes, Ry/au):

     atom    1 type  1   force =     0.00000000    0.00000000    0.00000000
     atom    2 type  2   force =     0.00000000    0.00000000    0.00000000

     Total force =     0.000000     Total SCF correction =     0.000000


     Computing stress (Cartesian axis) and pressure


     negative rho (up, down):  9.628E-04 0.000E+00
          total   stress  (Ry/bohr**3)                   (kbar)     P=       43.89
   0.00029834   0.00000000   0.00000000           43.89        0.00        0.00
   0.00000000   0.00029834   0.00000000            0.00       43.89        0.00
   0.00000000   0.00000000   0.00029834            0.00        0.00       43.89


     Writing all to output data dir ./TiFe.save/ :
     XML data file, charge density, pseudopotentials, collected wavefunctions

     init_run     :      1.73s CPU      1.81s WALL (       2 calls)
     electrons    :     91.31s CPU     96.13s WALL (       4 calls)
     update_pot   :      0.16s CPU      0.17s WALL (       2 calls)
     forces       :      0.91s CPU      0.99s WALL (       4 calls)
     stress       :      5.43s CPU      5.63s WALL (       4 calls)

     Called by init_run:
     wfcinit      :      0.59s CPU      0.60s WALL (       2 calls)
     potinit      :      0.44s CPU      0.46s WALL (       2 calls)
     hinit0       :      0.38s CPU      0.39s WALL (       2 calls)

     Called by electrons:
     c_bands      :     54.48s CPU     55.84s WALL (      92 calls)
     sum_band     :     20.09s CPU     21.93s WALL (      92 calls)
     v_of_rho     :      1.95s CPU      2.11s WALL (      94 calls)
     newd         :     10.40s CPU     11.79s WALL (      94 calls)
     PAW_pot      :      4.78s CPU      4.83s WALL (      96 calls)
     mix_rho      :      0.22s CPU      0.25s WALL (      92 calls)

     Called by c_bands:
     init_us_2    :      1.54s CPU      1.58s WALL (   10976 calls)
     cegterg      :     51.82s CPU     53.09s WALL (    5152 calls)

     Called by *egterg:
     cdiaghg      :      6.00s CPU      6.13s WALL (   19417 calls)
     h_psi        :     39.79s CPU     40.82s WALL (   19753 calls)
     s_psi        :      1.03s CPU      1.06s WALL (   19753 calls)
     g_psi        :      0.25s CPU      0.25s WALL (   14489 calls)

     Called by h_psi:
     h_psi:calbec :      1.52s CPU      1.56s WALL (   19753 calls)
     vloc_psi     :     37.03s CPU     37.98s WALL (   19753 calls)
     add_vuspsi   :      1.05s CPU      1.08s WALL (   19753 calls)

     General routines
     calbec       :      2.34s CPU      2.41s WALL (   28825 calls)
     fft          :      1.22s CPU      1.43s WALL (    1318 calls)
     ffts         :      0.30s CPU      0.30s WALL (     186 calls)
     fftw         :     33.38s CPU     34.20s WALL (  573968 calls)
     interpolate  :      0.37s CPU      0.40s WALL (      94 calls)

     Parallel routines

     PWSCF        :    100.18s CPU    105.56s WALL


   This run was terminated on:  15:35:26  25Oct2025            

=------------------------------------------------------------------------------=
   JOB DONE.
=------------------------------------------------------------------------------=
