
     Program PWSCF v.7.4 starts on 25Oct2025 at 15:44:49 

     This program is part of the open-source Quantum ESPRESSO suite
     for quantum simulation of materials; please cite
         "P. Giannozzi et al., J. Phys.:Condens. Matter 21 395502 (2009);
         "P. Giannozzi et al., J. Phys.:Condens. Matter 29 465901 (2017);
         "P. Giannozzi et al., J. Chem. Phys. 152 154105 (2020);
          URL http://www.quantum-espresso.org", 
     in publications or presentations arising from this work. More details at
     http://www.quantum-espresso.org/quote

     Parallel version (MPI & OpenMP), running on       8 processor cores
     Number of MPI processes:                 8
     Threads/MPI process:                     1

     MPI processes distributed on     1 nodes
     225020 MiB available memory on the printing compute node when the environment starts

     Reading input from TiFe_relaxed10.in

     Current dimensions of program PWSCF are:
     Max number of different atomic species (ntypx) = 10
     Max number of k-points (npk) =  40000
     Max angular momentum in pseudopotentials (lmaxx) =  4
     file Fe.pbe-spn-kjpaw_psl.0.2.1.UPF: wavefunction(s)  3D renormalized

     IMPORTANT: XC functional enforced from input :
     Exchange-correlation= PBE
                           (   1   4   3   4   0   0   0)
     Any further DFT definition will be discarded
     Please, verify this is what you really want

     Message from routine setup:
     using ibrav=0 with symmetry is DISCOURAGED, use correct ibrav instead

     R & G space division:  proc/nbgrp/npool/nimage =       8
     Subspace diagonalization in iterative solution of the eigenvalue problem:
     a serial algorithm will be used


     Parallelization info
     --------------------
     sticks:   dense  smooth     PW     G-vecs:    dense   smooth      PW
     Min         532     151     43                26154     3989     617
     Max         533     152     44                26155     3993     620
     Sum        4257    1209    349               209233    31919    4945

     Using Slab Decomposition



     bravais-lattice index     =            0
     lattice parameter (alat)  =       5.5533  a.u.
     unit-cell volume          =     171.2590 (a.u.)^3
     number of atoms/cell      =            2
     number of atomic types    =            2
     number of electrons       =        28.00
     number of Kohn-Sham states=           18
     kinetic-energy cutoff     =     124.0000  Ry
     charge density cutoff     =    1736.0000  Ry
     scf convergence threshold =      1.0E-08
     mixing beta               =       0.7000
     number of iterations used =            8  plain     mixing
     energy convergence thresh.=      1.0E-04
     force convergence thresh. =      1.0E-03
     press convergence thresh. =      5.0E-01
     Exchange-correlation= PBE
                           (   1   4   3   4   0   0   0)
     nstep                     =           50


     celldm(1)=   5.553300  celldm(2)=   0.000000  celldm(3)=   0.000000
     celldm(4)=   0.000000  celldm(5)=   0.000000  celldm(6)=   0.000000

     crystal axes: (cart. coord. in units of alat)
               a(1) = (   1.000000   0.000000   0.000000 )  
               a(2) = (   0.000000   1.000000   0.000000 )  
               a(3) = (   0.000000   0.000000   1.000000 )  

     reciprocal axes: (cart. coord. in units 2 pi/alat)
               b(1) = (  1.000000  0.000000  0.000000 )  
               b(2) = (  0.000000  1.000000  0.000000 )  
               b(3) = (  0.000000  0.000000  1.000000 )  


     PseudoPot. # 1 for Fe read from file:
     ../../pseudos/Fe.pbe-spn-kjpaw_psl.0.2.1.UPF
     MD5 check sum: e86618425769142926afa95317d90200
     Pseudo is Projector augmented-wave + core cor, Zval = 16.0
     Generated using "atomic" code by A. Dal Corso  v.5.0.99 svn rev. 10869
     Shape of augmentation charge: PSQ
     Using radial grid of 1191 points,  6 beta functions with: 
                l(1) =   0
                l(2) =   0
                l(3) =   1
                l(4) =   1
                l(5) =   2
                l(6) =   2
     Q(r) pseudized with 0 coefficients 


     PseudoPot. # 2 for Ti read from file:
     ../../pseudos/ti_pbe_v1.4.uspp.F.UPF
     MD5 check sum: 88a00a6731bd790ddea75d31a80cb452
     Pseudo is Ultrasoft + core correction, Zval = 12.0
     Generated by new atomic code, or converted to UPF format
     Using radial grid of  851 points,  6 beta functions with: 
                l(1) =   0
                l(2) =   0
                l(3) =   1
                l(4) =   1
                l(5) =   2
                l(6) =   2
     Q(r) pseudized with  6 coefficients,  rinner =    1.000   1.000   1.000
                                                       1.000   1.000

     atomic species   valence    mass     pseudopotential
     Fe               16.00    55.84500     Fe( 1.00)
     Ti               12.00    47.86700     Ti( 1.00)

     48 Sym. Ops., with inversion, found



   Cartesian axes

     site n.     atom                  positions (alat units)
         1        Fe     tau(   1) = (   0.5000000   0.5000000   0.5000000  )
         2        Ti     tau(   2) = (   0.0000000   0.0000000   0.0000000  )

     number of k points=    56  Marzari-Vanderbilt smearing, width (Ry)=  0.0050
                       cart. coord. in units 2pi/alat
        k(    1) = (   0.0000000   0.0000000   0.0000000), wk =   0.0015026
        k(    2) = (   0.0000000   0.0000000   0.0909091), wk =   0.0090158
        k(    3) = (   0.0000000   0.0000000   0.1818182), wk =   0.0090158
        k(    4) = (   0.0000000   0.0000000   0.2727273), wk =   0.0090158
        k(    5) = (   0.0000000   0.0000000   0.3636364), wk =   0.0090158
        k(    6) = (   0.0000000   0.0000000   0.4545455), wk =   0.0090158
        k(    7) = (   0.0000000   0.0909091   0.0909091), wk =   0.0180316
        k(    8) = (   0.0000000   0.0909091   0.1818182), wk =   0.0360631
        k(    9) = (   0.0000000   0.0909091   0.2727273), wk =   0.0360631
        k(   10) = (   0.0000000   0.0909091   0.3636364), wk =   0.0360631
        k(   11) = (   0.0000000   0.0909091   0.4545455), wk =   0.0360631
        k(   12) = (   0.0000000   0.1818182   0.1818182), wk =   0.0180316
        k(   13) = (   0.0000000   0.1818182   0.2727273), wk =   0.0360631
        k(   14) = (   0.0000000   0.1818182   0.3636364), wk =   0.0360631
        k(   15) = (   0.0000000   0.1818182   0.4545455), wk =   0.0360631
        k(   16) = (   0.0000000   0.2727273   0.2727273), wk =   0.0180316
        k(   17) = (   0.0000000   0.2727273   0.3636364), wk =   0.0360631
        k(   18) = (   0.0000000   0.2727273   0.4545455), wk =   0.0360631
        k(   19) = (   0.0000000   0.3636364   0.3636364), wk =   0.0180316
        k(   20) = (   0.0000000   0.3636364   0.4545455), wk =   0.0360631
        k(   21) = (   0.0000000   0.4545455   0.4545455), wk =   0.0180316
        k(   22) = (   0.0909091   0.0909091   0.0909091), wk =   0.0120210
        k(   23) = (   0.0909091   0.0909091   0.1818182), wk =   0.0360631
        k(   24) = (   0.0909091   0.0909091   0.2727273), wk =   0.0360631
        k(   25) = (   0.0909091   0.0909091   0.3636364), wk =   0.0360631
        k(   26) = (   0.0909091   0.0909091   0.4545455), wk =   0.0360631
        k(   27) = (   0.0909091   0.1818182   0.1818182), wk =   0.0360631
        k(   28) = (   0.0909091   0.1818182   0.2727273), wk =   0.0721262
        k(   29) = (   0.0909091   0.1818182   0.3636364), wk =   0.0721262
        k(   30) = (   0.0909091   0.1818182   0.4545455), wk =   0.0721262
        k(   31) = (   0.0909091   0.2727273   0.2727273), wk =   0.0360631
        k(   32) = (   0.0909091   0.2727273   0.3636364), wk =   0.0721262
        k(   33) = (   0.0909091   0.2727273   0.4545455), wk =   0.0721262
        k(   34) = (   0.0909091   0.3636364   0.3636364), wk =   0.0360631
        k(   35) = (   0.0909091   0.3636364   0.4545455), wk =   0.0721262
        k(   36) = (   0.0909091   0.4545455   0.4545455), wk =   0.0360631
        k(   37) = (   0.1818182   0.1818182   0.1818182), wk =   0.0120210
        k(   38) = (   0.1818182   0.1818182   0.2727273), wk =   0.0360631
        k(   39) = (   0.1818182   0.1818182   0.3636364), wk =   0.0360631
        k(   40) = (   0.1818182   0.1818182   0.4545455), wk =   0.0360631
        k(   41) = (   0.1818182   0.2727273   0.2727273), wk =   0.0360631
        k(   42) = (   0.1818182   0.2727273   0.3636364), wk =   0.0721262
        k(   43) = (   0.1818182   0.2727273   0.4545455), wk =   0.0721262
        k(   44) = (   0.1818182   0.3636364   0.3636364), wk =   0.0360631
        k(   45) = (   0.1818182   0.3636364   0.4545455), wk =   0.0721262
        k(   46) = (   0.1818182   0.4545455   0.4545455), wk =   0.0360631
        k(   47) = (   0.2727273   0.2727273   0.2727273), wk =   0.0120210
        k(   48) = (   0.2727273   0.2727273   0.3636364), wk =   0.0360631
        k(   49) = (   0.2727273   0.2727273   0.4545455), wk =   0.0360631
        k(   50) = (   0.2727273   0.3636364   0.3636364), wk =   0.0360631
        k(   51) = (   0.2727273   0.3636364   0.4545455), wk =   0.0721262
        k(   52) = (   0.2727273   0.4545455   0.4545455), wk =   0.0360631
        k(   53) = (   0.3636364   0.3636364   0.3636364), wk =   0.0120210
        k(   54) = (   0.3636364   0.3636364   0.4545455), wk =   0.0360631
        k(   55) = (   0.3636364   0.4545455   0.4545455), wk =   0.0360631
        k(   56) = (   0.4545455   0.4545455   0.4545455), wk =   0.0120210

     Dense  grid:   209233 G-vectors     FFT dimensions: (  75,  75,  75)

     Smooth grid:    31919 G-vectors     FFT dimensions: (  40,  40,  40)

     Estimated max dynamical RAM per process >     117.03 MB

     Estimated total dynamical RAM >     936.25 MB

     Check: negative core charge=   -0.000002

     Initial potential from superposition of free atoms

     starting charge      26.9995, renormalised to      28.0000

     negative rho (up, down):  1.347E-03 0.000E+00
     Starting wfcs are   23 randomized atomic wfcs
     Checking if some PAW data can be deallocated... 

     total cpu time spent up to now is        1.4 secs

     per-process dynamical memory:   142.8 Mb

     Self-consistent Calculation

     iteration #  1     ecut=   124.00 Ry     beta= 0.70
     Davidson diagonalization with overlap
     ethr =  1.00E-02,  avg # of iterations =  2.1

     negative rho (up, down):  7.937E-05 0.000E+00

     total cpu time spent up to now is        2.4 secs

     total energy              =    -434.89047275 Ry
     estimated scf accuracy    <      17.46535633 Ry

     iteration #  2     ecut=   124.00 Ry     beta= 0.70
     Davidson diagonalization with overlap
     ethr =  1.00E-02,  avg # of iterations =  6.0

     negative rho (up, down):  2.353E-05 0.000E+00

     total cpu time spent up to now is        4.0 secs

     total energy              =    -448.51249463 Ry
     estimated scf accuracy    <      66.10195194 Ry

     iteration #  3     ecut=   124.00 Ry     beta= 0.70
     Davidson diagonalization with overlap
     ethr =  1.00E-02,  avg # of iterations =  3.1

     negative rho (up, down):  2.377E-04 0.000E+00

     total cpu time spent up to now is        5.2 secs

     total energy              =    -448.59203340 Ry
     estimated scf accuracy    <      16.77106202 Ry

     iteration #  4     ecut=   124.00 Ry     beta= 0.70
     Davidson diagonalization with overlap
     ethr =  1.00E-02,  avg # of iterations =  2.2

     negative rho (up, down):  2.766E-04 0.000E+00

     total cpu time spent up to now is        6.2 secs

     total energy              =    -449.11252552 Ry
     estimated scf accuracy    <       4.68111793 Ry

     iteration #  5     ecut=   124.00 Ry     beta= 0.70
     Davidson diagonalization with overlap
     ethr =  1.00E-02,  avg # of iterations =  1.0

     negative rho (up, down):  3.285E-04 0.000E+00

     total cpu time spent up to now is        7.1 secs

     total energy              =    -449.11683000 Ry
     estimated scf accuracy    <       4.27451567 Ry

     iteration #  6     ecut=   124.00 Ry     beta= 0.70
     Davidson diagonalization with overlap
     ethr =  1.00E-02,  avg # of iterations =  1.0

     negative rho (up, down):  1.118E-03 0.000E+00

     total cpu time spent up to now is        7.9 secs

     total energy              =    -447.89068457 Ry
     estimated scf accuracy    <       4.50163493 Ry

     iteration #  7     ecut=   124.00 Ry     beta= 0.70
     Davidson diagonalization with overlap
     ethr =  1.00E-02,  avg # of iterations =  3.4

     negative rho (up, down):  1.015E-03 0.000E+00

     total cpu time spent up to now is        9.0 secs

     total energy              =    -448.58840447 Ry
     estimated scf accuracy    <       3.89651472 Ry

     iteration #  8     ecut=   124.00 Ry     beta= 0.70
     Davidson diagonalization with overlap
     ethr =  1.00E-02,  avg # of iterations =  1.0

     negative rho (up, down):  7.976E-04 0.000E+00

     total cpu time spent up to now is        9.8 secs

     total energy              =    -448.43997417 Ry
     estimated scf accuracy    <       1.27715295 Ry

     iteration #  9     ecut=   124.00 Ry     beta= 0.70
     Davidson diagonalization with overlap
     ethr =  4.56E-03,  avg # of iterations =  1.9

     negative rho (up, down):  7.977E-04 0.000E+00

     total cpu time spent up to now is       10.8 secs

     total energy              =    -448.60539805 Ry
     estimated scf accuracy    <       0.26863249 Ry

     iteration # 10     ecut=   124.00 Ry     beta= 0.70
     Davidson diagonalization with overlap
     ethr =  9.59E-04,  avg # of iterations =  1.3

     negative rho (up, down):  8.075E-04 0.000E+00

     total cpu time spent up to now is       11.6 secs

     total energy              =    -448.61289738 Ry
     estimated scf accuracy    <       0.28159432 Ry

     iteration # 11     ecut=   124.00 Ry     beta= 0.70
     Davidson diagonalization with overlap
     ethr =  9.59E-04,  avg # of iterations =  1.0

     negative rho (up, down):  7.617E-04 0.000E+00

     total cpu time spent up to now is       12.5 secs

     total energy              =    -448.67957078 Ry
     estimated scf accuracy    <       0.34549008 Ry

     iteration # 12     ecut=   124.00 Ry     beta= 0.70
     Davidson diagonalization with overlap
     ethr =  9.59E-04,  avg # of iterations =  1.8

     negative rho (up, down):  7.932E-04 0.000E+00

     total cpu time spent up to now is       13.4 secs

     total energy              =    -448.62277485 Ry
     estimated scf accuracy    <       1.28404054 Ry

     iteration # 13     ecut=   124.00 Ry     beta= 0.70
     Davidson diagonalization with overlap
     ethr =  9.59E-04,  avg # of iterations =  1.2

     negative rho (up, down):  9.274E-04 0.000E+00

     total cpu time spent up to now is       14.3 secs

     total energy              =    -448.63537755 Ry
     estimated scf accuracy    <       0.58154385 Ry

     iteration # 14     ecut=   124.00 Ry     beta= 0.70
     Davidson diagonalization with overlap
     ethr =  9.59E-04,  avg # of iterations =  1.0

     negative rho (up, down):  1.025E-03 0.000E+00

     total cpu time spent up to now is       15.2 secs

     total energy              =    -448.61055071 Ry
     estimated scf accuracy    <       0.50368914 Ry

     iteration # 15     ecut=   124.00 Ry     beta= 0.70
     Davidson diagonalization with overlap
     ethr =  9.59E-04,  avg # of iterations =  1.0

     negative rho (up, down):  1.032E-03 0.000E+00

     total cpu time spent up to now is       16.1 secs

     total energy              =    -448.61143942 Ry
     estimated scf accuracy    <       0.31963621 Ry

     iteration # 16     ecut=   124.00 Ry     beta= 0.70
     Davidson diagonalization with overlap
     ethr =  9.59E-04,  avg # of iterations =  1.0

     negative rho (up, down):  1.077E-03 0.000E+00

     total cpu time spent up to now is       17.0 secs

     total energy              =    -448.59313187 Ry
     estimated scf accuracy    <       0.28283031 Ry

     iteration # 17     ecut=   124.00 Ry     beta= 0.70
     Davidson diagonalization with overlap
     ethr =  9.59E-04,  avg # of iterations =  1.0

     negative rho (up, down):  1.074E-03 0.000E+00

     total cpu time spent up to now is       17.9 secs

     total energy              =    -448.60188466 Ry
     estimated scf accuracy    <       0.07727334 Ry

     iteration # 18     ecut=   124.00 Ry     beta= 0.70
     Davidson diagonalization with overlap
     ethr =  2.76E-04,  avg # of iterations =  1.6

     negative rho (up, down):  9.925E-04 0.000E+00

     total cpu time spent up to now is       18.8 secs

     total energy              =    -448.58361173 Ry
     estimated scf accuracy    <       0.14906512 Ry

     iteration # 19     ecut=   124.00 Ry     beta= 0.70
     Davidson diagonalization with overlap
     ethr =  2.76E-04,  avg # of iterations =  1.1

     negative rho (up, down):  9.436E-04 0.000E+00

     total cpu time spent up to now is       19.6 secs

     total energy              =    -448.59412597 Ry
     estimated scf accuracy    <       0.04848615 Ry

     iteration # 20     ecut=   124.00 Ry     beta= 0.70
     Davidson diagonalization with overlap
     ethr =  1.73E-04,  avg # of iterations =  1.1

     negative rho (up, down):  1.023E-03 0.000E+00

     total cpu time spent up to now is       20.5 secs

     total energy              =    -448.57755581 Ry
     estimated scf accuracy    <       0.17402929 Ry

     iteration # 21     ecut=   124.00 Ry     beta= 0.70
     Davidson diagonalization with overlap
     ethr =  1.73E-04,  avg # of iterations =  2.1

     negative rho (up, down):  1.012E-03 0.000E+00

     total cpu time spent up to now is       21.5 secs

     total energy              =    -448.58650556 Ry
     estimated scf accuracy    <       0.00384583 Ry

     iteration # 22     ecut=   124.00 Ry     beta= 0.70
     Davidson diagonalization with overlap
     ethr =  1.37E-05,  avg # of iterations =  4.6

     negative rho (up, down):  1.004E-03 0.000E+00

     total cpu time spent up to now is       22.5 secs

     total energy              =    -448.58691254 Ry
     estimated scf accuracy    <       0.00198474 Ry

     iteration # 23     ecut=   124.00 Ry     beta= 0.70
     Davidson diagonalization with overlap
     ethr =  7.09E-06,  avg # of iterations =  1.5

     negative rho (up, down):  1.006E-03 0.000E+00

     total cpu time spent up to now is       23.4 secs

     total energy              =    -448.58700272 Ry
     estimated scf accuracy    <       0.00176934 Ry

     iteration # 24     ecut=   124.00 Ry     beta= 0.70
     Davidson diagonalization with overlap
     ethr =  6.32E-06,  avg # of iterations =  1.0

     negative rho (up, down):  9.532E-04 0.000E+00

     total cpu time spent up to now is       24.3 secs

     total energy              =    -448.58622431 Ry
     estimated scf accuracy    <       0.00189334 Ry

     iteration # 25     ecut=   124.00 Ry     beta= 0.70
     Davidson diagonalization with overlap
     ethr =  6.32E-06,  avg # of iterations =  2.5

     negative rho (up, down):  9.519E-04 0.000E+00

     total cpu time spent up to now is       25.3 secs

     total energy              =    -448.58664002 Ry
     estimated scf accuracy    <       0.00120793 Ry

     iteration # 26     ecut=   124.00 Ry     beta= 0.70
     Davidson diagonalization with overlap
     ethr =  4.31E-06,  avg # of iterations =  1.0

     negative rho (up, down):  9.350E-04 0.000E+00

     total cpu time spent up to now is       26.2 secs

     total energy              =    -448.58685539 Ry
     estimated scf accuracy    <       0.00115500 Ry

     iteration # 27     ecut=   124.00 Ry     beta= 0.70
     Davidson diagonalization with overlap
     ethr =  4.13E-06,  avg # of iterations =  2.0

     negative rho (up, down):  9.665E-04 0.000E+00

     total cpu time spent up to now is       27.2 secs

     total energy              =    -448.58628949 Ry
     estimated scf accuracy    <       0.00358741 Ry

     iteration # 28     ecut=   124.00 Ry     beta= 0.70
     Davidson diagonalization with overlap
     ethr =  4.13E-06,  avg # of iterations =  2.0

     negative rho (up, down):  9.722E-04 0.000E+00

     total cpu time spent up to now is       28.1 secs

     total energy              =    -448.58652076 Ry
     estimated scf accuracy    <       0.00004733 Ry

     iteration # 29     ecut=   124.00 Ry     beta= 0.70
     Davidson diagonalization with overlap
     ethr =  1.69E-07,  avg # of iterations =  4.7

     negative rho (up, down):  9.640E-04 0.000E+00

     total cpu time spent up to now is       29.3 secs

     total energy              =    -448.58653251 Ry
     estimated scf accuracy    <       0.00024122 Ry

     iteration # 30     ecut=   124.00 Ry     beta= 0.70
     Davidson diagonalization with overlap
     ethr =  1.69E-07,  avg # of iterations =  3.7

     negative rho (up, down):  9.643E-04 0.000E+00

     total cpu time spent up to now is       30.3 secs

     total energy              =    -448.58655214 Ry
     estimated scf accuracy    <       0.00000020 Ry

     iteration # 31     ecut=   124.00 Ry     beta= 0.70
     Davidson diagonalization with overlap
     ethr =  7.22E-10,  avg # of iterations =  5.8

     negative rho (up, down):  9.639E-04 0.000E+00

     total cpu time spent up to now is       31.7 secs

     total energy              =    -448.58655245 Ry
     estimated scf accuracy    <       0.00000110 Ry

     iteration # 32     ecut=   124.00 Ry     beta= 0.70
     Davidson diagonalization with overlap
     ethr =  7.22E-10,  avg # of iterations =  3.7

     negative rho (up, down):  9.638E-04 0.000E+00

     total cpu time spent up to now is       32.7 secs

     total energy              =    -448.58655251 Ry
     estimated scf accuracy    <       0.00000016 Ry

     iteration # 33     ecut=   124.00 Ry     beta= 0.70
     Davidson diagonalization with overlap
     ethr =  5.58E-10,  avg # of iterations =  2.1

     negative rho (up, down):  9.641E-04 0.000E+00

     total cpu time spent up to now is       33.7 secs

     total energy              =    -448.58655247 Ry
     estimated scf accuracy    <       0.00000034 Ry

     iteration # 34     ecut=   124.00 Ry     beta= 0.70
     Davidson diagonalization with overlap
     ethr =  5.58E-10,  avg # of iterations =  2.0

     negative rho (up, down):  9.642E-04 0.000E+00

     total cpu time spent up to now is       34.6 secs

     total energy              =    -448.58655249 Ry
     estimated scf accuracy    <       0.00000001 Ry

     iteration # 35     ecut=   124.00 Ry     beta= 0.70
     Davidson diagonalization with overlap
     ethr =  5.04E-11,  avg # of iterations =  4.2

     negative rho (up, down):  9.641E-04 0.000E+00

     total cpu time spent up to now is       35.7 secs

     total energy              =    -448.58655249 Ry
     estimated scf accuracy    <       0.00000003 Ry

     iteration # 36     ecut=   124.00 Ry     beta= 0.70
     Davidson diagonalization with overlap
     ethr =  5.04E-11,  avg # of iterations =  3.8

     negative rho (up, down):  9.641E-04 0.000E+00

     total cpu time spent up to now is       36.8 secs

     total energy              =    -448.58655249 Ry
     estimated scf accuracy    <       0.00000001 Ry

     iteration # 37     ecut=   124.00 Ry     beta= 0.70
     Davidson diagonalization with overlap
     ethr =  3.67E-11,  avg # of iterations =  1.1

     negative rho (up, down):  9.642E-04 0.000E+00

     total cpu time spent up to now is       37.7 secs

     End of self-consistent calculation

          k = 0.0000 0.0000 0.0000 (  3911 PWs)   bands (ev):

   -69.2103 -39.1519 -35.2713 -35.2713 -35.2713 -15.2461 -15.2461 -15.2461
    10.1528  13.8638  13.8638  16.6568  16.6568  16.6568  18.9982  18.9982
    20.9365  20.9365

          k = 0.0000 0.0000 0.0909 (  3947 PWs)   bands (ev):

   -69.2100 -39.1497 -35.2739 -35.2710 -35.2710 -15.2754 -15.2443 -15.2443
    10.3257  13.9470  13.9536  16.6441  16.6441  16.6947  18.8926  19.0379
    20.6857  20.6857

          k = 0.0000 0.0000 0.1818 (  3964 PWs)   bands (ev):

   -69.2093 -39.1440 -35.2806 -35.2699 -35.2699 -15.3533 -15.2397 -15.2397
    10.8272  14.1866  14.1905  16.6148  16.6148  16.8008  18.5874  19.1278
    20.1021  20.1021

          k = 0.0000 0.0000 0.2727 (  3988 PWs)   bands (ev):

   -69.2083 -39.1366 -35.2894 -35.2686 -35.2686 -15.4541 -15.2335 -15.2335
    11.6057  14.4523  14.5738  16.5899  16.5899  16.9516  18.1202  19.1616
    19.4563  19.4563

          k = 0.0000 0.0000 0.3636 (  4008 PWs)   bands (ev):

   -69.2074 -39.1297 -35.2974 -35.2673 -35.2673 -15.5456 -15.2278 -15.2278
    12.5660  14.5651  15.0485  16.5850  16.5850  17.1052  17.5652  18.9274
    18.9274  18.9715

          k = 0.0000 0.0000 0.4545 (  3992 PWs)   bands (ev):

   -69.2069 -39.1256 -35.3021 -35.2666 -35.2666 -15.5994 -15.2245 -15.2245
    13.5347  14.3044  15.4744  16.5939  16.5939  17.0902  17.2053  18.6282
    18.6282  18.6588

          k = 0.0000 0.0909 0.0909 (  3966 PWs)   bands (ev):

   -69.2097 -39.1475 -35.2748 -35.2724 -35.2706 -15.2765 -15.2702 -15.2425
    10.4951  14.0265  14.0436  16.5616  16.6235  16.7909  18.8774  19.0086
    20.4103  20.4352

          k = 0.0000 0.0909 0.1818 (  3978 PWs)   bands (ev):

   -69.2090 -39.1414 -35.2811 -35.2723 -35.2696 -15.3509 -15.2676 -15.2376
    10.9856  14.2440  14.2906  16.4813  16.5732  16.9084  18.6426  19.0871
    19.8666  19.9000

          k = 0.0000 0.0909 0.2727 (  3995 PWs)   bands (ev):

   -69.2080 -39.1335 -35.2900 -35.2716 -35.2682 -15.4506 -15.2606 -15.2312
    11.7434  14.5128  14.6445  16.4377  16.5167  16.9935  18.2447  19.0577
    19.3653  19.4001

          k = 0.0000 0.0909 0.3636 (  3991 PWs)   bands (ev):

   -69.2071 -39.1262 -35.2982 -35.2708 -35.2670 -15.5411 -15.2541 -15.2253
    12.6707  14.6170  15.0808  16.4435  16.4656  16.9997  17.7899  18.6459
    19.0664  19.2132

          k = 0.0000 0.0909 0.4545 (  3999 PWs)   bands (ev):

   -69.2066 -39.1219 -35.3030 -35.2704 -35.2663 -15.5944 -15.2503 -15.2217
    13.5943  14.3519  15.4692  16.3968  16.4805  16.9451  17.4633  18.3527
    18.9323  19.0197

          k = 0.0000 0.1818 0.1818 (  3972 PWs)   bands (ev):

   -69.2082 -39.1345 -35.2840 -35.2772 -35.2686 -15.3519 -15.3343 -15.2321
    11.4401  14.3900  14.5687  16.3070  16.4778  16.9857  18.6948  19.0458
    19.3496  19.5758

          k = 0.0000 0.1818 0.2727 (  4003 PWs)   bands (ev):

   -69.2073 -39.1253 -35.2920 -35.2794 -35.2673 -15.4413 -15.3326 -15.2250
    12.1275  14.5565  14.9462  16.1858  16.3868  16.9101  18.5208  18.8014
    19.2048  19.3971

          k = 0.0000 0.1818 0.3636 (  3997 PWs)   bands (ev):

   -69.2064 -39.1169 -35.3004 -35.2802 -35.2661 -15.5291 -15.3242 -15.2184
    12.9354  14.5943  15.3322  16.1499  16.3572  16.7002  18.2182  18.4617
    19.3302  19.4170

          k = 0.0000 0.1818 0.4545 (  3990 PWs)   bands (ev):

   -69.2059 -39.1119 -35.3055 -35.2806 -35.2654 -15.5809 -15.3192 -15.2144
    13.6841  14.3630  15.6125  16.2009  16.3901  16.4819  18.0480  18.2166
    19.3519  19.5140

          k = 0.0000 0.2727 0.2727 (  4000 PWs)   bands (ev):

   -69.2063 -39.1146 -35.2961 -35.2880 -35.2661 -15.4378 -15.4172 -15.2168
    12.6688  14.5348  15.3963  15.9775  16.3399  16.6425  18.5788  18.7502
    19.1052  19.5703

          k = 0.0000 0.2727 0.3636 (  3993 PWs)   bands (ev):

   -69.2054 -39.1047 -35.3035 -35.2923 -35.2649 -15.5135 -15.4149 -15.2093
    13.2265  14.4165  15.8407  15.8678  16.3180  16.4951  18.3958  18.7291
    19.2748  19.8464

          k = 0.0000 0.2727 0.4545 (  3996 PWs)   bands (ev):

   -69.2049 -39.0988 -35.3088 -35.2939 -35.2643 -15.5633 -15.4084 -15.2048
    13.6460  14.2282  15.8808  16.0550  16.0845  16.8466  18.1510  18.6844
    19.4869  20.0941

          k = 0.0000 0.3636 0.3636 (  4002 PWs)   bands (ev):

   -69.2046 -39.0934 -35.3073 -35.3025 -35.2639 -15.5042 -15.4923 -15.2009
    13.4198  14.2078  15.6811  15.9708  16.4456  16.8939  18.5222  19.0880
    19.1103  20.2512

          k = 0.0000 0.3636 0.4545 (  3999 PWs)   bands (ev):

   -69.2040 -39.0867 -35.3119 -35.3061 -35.2632 -15.5470 -15.4894 -15.1960
    13.5038  14.0682  15.6293  15.7309  16.8140  17.5390  18.2827  19.1482
    19.3229  20.5544

          k = 0.0000 0.4545 0.4545 (  3998 PWs)   bands (ev):

   -69.2035 -39.0794 -35.3139 -35.3132 -35.2626 -15.5381 -15.5364 -15.1907
    13.3945  13.9723  15.5084  15.5425  17.5106  17.9878  18.6669  18.8520
    19.4119  20.8261

          k = 0.0909 0.0909 0.0909 (  3959 PWs)   bands (ev):

   -69.2094 -39.1451 -35.2744 -35.2744 -35.2711 -15.2769 -15.2684 -15.2684
    10.6615  14.1185  14.1185  16.5391  16.5391  16.8681  18.9294  18.9294
    19.9928  20.6651

          k = 0.0909 0.0909 0.1818 (  3966 PWs)   bands (ev):

   -69.2087 -39.1388 -35.2813 -35.2733 -35.2710 -15.3483 -15.2672 -15.2636
    11.1426  14.3361  14.3554  16.4286  16.4796  16.9503  18.7011  19.0492
    19.5188  20.0788

          k = 0.0909 0.0909 0.2727 (  3992 PWs)   bands (ev):

   -69.2077 -39.1304 -35.2905 -35.2719 -35.2707 -15.4471 -15.2591 -15.2574
    11.8826  14.6168  14.6736  16.3700  16.3987  16.9454  18.3564  19.0005
    19.3236  19.4428

          k = 0.0909 0.0909 0.3636 (  3994 PWs)   bands (ev):

   -69.2068 -39.1228 -35.2988 -35.2707 -35.2704 -15.5368 -15.2516 -15.2516
    12.7810  14.7008  15.0813  16.2989  16.4005  16.8595  17.9712  18.7163
    18.9368  19.4202

          k = 0.0909 0.0909 0.4545 (  4007 PWs)   bands (ev):

   -69.2063 -39.1183 -35.3038 -35.2702 -35.2699 -15.5896 -15.2481 -15.2471
    13.6656  14.4197  15.4383  16.1745  16.5156  16.7699  17.6949  18.4315
    18.6597  19.5237

          k = 0.0909 0.1818 0.1818 (  3984 PWs)   bands (ev):

   -69.2080 -39.1316 -35.2836 -35.2780 -35.2712 -15.3487 -15.3325 -15.2595
    11.5926  14.4938  14.6188  16.2700  16.3702  16.9131  18.7644  19.0172
    19.2358  19.7948

          k = 0.0909 0.1818 0.2727 (  3994 PWs)   bands (ev):

   -69.2070 -39.1222 -35.2919 -35.2795 -35.2705 -15.4380 -15.3301 -15.2518
    12.2705  14.6756  14.9647  16.1421  16.2715  16.7315  18.6109  18.9228
    19.2407  19.4559

          k = 0.0909 0.1818 0.3636 (  4001 PWs)   bands (ev):

   -69.2061 -39.1136 -35.3007 -35.2800 -35.2697 -15.5253 -15.3217 -15.2447
    13.0616  14.7215  15.2859  16.0686  16.2634  16.5479  18.3724  18.5771
    19.1012  19.7199

          k = 0.0909 0.1818 0.4545 (  3993 PWs)   bands (ev):

   -69.2056 -39.1084 -35.3060 -35.2802 -35.2692 -15.5768 -15.3167 -15.2405
    13.7875  14.4740  15.5175  16.0018  16.3647  16.4909  18.1991  18.2872
    18.8991  20.1084

          k = 0.0909 0.2727 0.2727 (  3989 PWs)   bands (ev):

   -69.2061 -39.1114 -35.2957 -35.2883 -35.2695 -15.4340 -15.4153 -15.2435
    12.8158  14.6587  15.4058  15.9390  16.2101  16.4306  18.6963  18.9063
    19.0873  19.7047

          k = 0.0909 0.2727 0.3636 (  3985 PWs)   bands (ev):

   -69.2052 -39.1015 -35.3033 -35.2922 -35.2686 -15.5103 -15.4125 -15.2357
    13.3703  14.5419  15.7742  15.8302  16.2030  16.3600  18.4780  18.8193
    19.1582  20.1172

          k = 0.0909 0.2727 0.4545 (  4006 PWs)   bands (ev):

   -69.2046 -39.0955 -35.3089 -35.2935 -35.2680 -15.5600 -15.4061 -15.2311
    13.7756  14.3545  15.7972  15.8477  16.1550  16.7541  18.1884  18.7887
    19.0873  20.6002

          k = 0.0909 0.3636 0.3636 (  3992 PWs)   bands (ev):

   -69.2043 -39.0903 -35.3068 -35.3024 -35.2675 -15.5011 -15.4904 -15.2274
    13.5656  14.3325  15.6506  15.8817  16.4032  16.7209  18.4860  18.9868
    19.1887  20.5636

          k = 0.0909 0.3636 0.4545 (  4002 PWs)   bands (ev):

   -69.2038 -39.0836 -35.3116 -35.3057 -35.2669 -15.5446 -15.4873 -15.2224
    13.6401  14.1966  15.5970  15.6797  16.7391  17.3611  18.2404  18.9494
    19.2815  20.7958

          k = 0.0909 0.4545 0.4545 (  3993 PWs)   bands (ev):

   -69.2033 -39.0765 -35.3134 -35.3128 -35.2662 -15.5360 -15.5345 -15.2173
    13.5314  14.1009  15.4860  15.5157  17.4523  17.8446  18.4160  18.5135
    19.4899  21.0193

          k = 0.1818 0.1818 0.1818 (  3989 PWs)   bands (ev):

   -69.2072 -39.1239 -35.2825 -35.2825 -35.2757 -15.3447 -15.3275 -15.3275
    12.0266  14.7610  14.7610  16.1712  16.1712  16.6504  18.9328  18.9328
    19.2929  20.0374

          k = 0.1818 0.1818 0.2727 (  3992 PWs)   bands (ev):

   -69.2063 -39.1139 -35.2921 -35.2810 -35.2777 -15.4292 -15.3259 -15.3210
    12.6697  14.9702  15.0333  16.0341  16.0388  16.3368  18.8049  19.0078
    19.4273  19.5988

          k = 0.1818 0.1818 0.3636 (  3994 PWs)   bands (ev):

   -69.2054 -39.1046 -35.3016 -35.2796 -35.2790 -15.5151 -15.3151 -15.3150
    13.3929  15.0074  15.2036  15.8991  16.0682  16.2649  18.6704  18.7433
    18.9523  20.1600

          k = 0.1818 0.1818 0.4545 (  3986 PWs)   bands (ev):

   -69.2049 -39.0991 -35.3073 -35.2797 -35.2788 -15.5658 -15.3114 -15.3085
    14.0172  14.6821  15.3921  15.7788  16.1845  16.4450  18.3322  18.5953
    18.6806  20.5298

          k = 0.1818 0.2727 0.2727 (  3994 PWs)   bands (ev):

   -69.2053 -39.1029 -35.2944 -35.2893 -35.2787 -15.4238 -15.4102 -15.3144
    13.2274  14.9964  15.4273  15.8397  15.9189  15.9976  18.8252  19.0096
    19.3284  20.0777

          k = 0.1818 0.2727 0.3636 (  3988 PWs)   bands (ev):

   -69.2045 -39.0928 -35.3031 -35.2918 -35.2783 -15.5017 -15.4060 -15.3061
    13.7701  14.8706  15.5749  15.7253  15.9737  16.0870  18.5905  18.8382
    19.2207  20.3803

          k = 0.1818 0.2727 0.4545 (  3991 PWs)   bands (ev):

   -69.2039 -39.0868 -35.3091 -35.2925 -35.2779 -15.5513 -15.4000 -15.3011
    14.1253  14.6660  15.5488  15.6706  16.0602  16.5356  18.2319  18.6757
    19.1297  20.6014

          k = 0.1818 0.3636 0.3636 (  3990 PWs)   bands (ev):

   -69.2036 -39.0819 -35.3055 -35.3022 -35.2773 -15.4929 -15.4852 -15.2979
    13.9820  14.6576  15.5747  15.6896  16.2719  16.2956  18.4622  18.6969
    19.4850  20.5435

          k = 0.1818 0.3636 0.4545 (  3993 PWs)   bands (ev):

   -69.2031 -39.0754 -35.3108 -35.3045 -35.2767 -15.5379 -15.4817 -15.2930
    14.0272  14.5323  15.5200  15.5675  16.4915  16.9250  18.1794  18.5402
    19.5616  20.7853

          k = 0.1818 0.4545 0.4545 (  4002 PWs)   bands (ev):

   -69.2026 -39.0686 -35.3120 -35.3116 -35.2760 -15.5305 -15.5294 -15.2882
    13.9234  14.4434  15.4329  15.4545  17.1746  17.2811  18.0690  18.2503
    19.7506  21.0765

          k = 0.2727 0.2727 0.2727 (  3998 PWs)   bands (ev):

   -69.2044 -39.0917 -35.2928 -35.2928 -35.2886 -15.4134 -15.4035 -15.4035
    13.7990  15.4441  15.4441  15.5182  15.7193  15.7193  18.8337  18.8337
    19.7983  19.7983

          k = 0.2727 0.2727 0.3636 (  3992 PWs)   bands (ev):

   -69.2035 -39.0814 -35.3030 -35.2913 -35.2908 -15.4906 -15.3975 -15.3973
    14.2965  15.1356  15.4426  15.6207  15.7209  15.9354  18.5785  18.6239
    19.6455  20.2947

          k = 0.2727 0.2727 0.4545 (  3990 PWs)   bands (ev):

   -69.2030 -39.0752 -35.3095 -35.2915 -35.2904 -15.5398 -15.3936 -15.3902
    14.5097  14.9115  15.4302  15.5701  15.9004  16.3710  18.1751  18.4970
    19.5914  20.6352

          k = 0.2727 0.3636 0.3636 (  3988 PWs)   bands (ev):

   -69.2027 -39.0709 -35.3037 -35.3021 -35.2902 -15.4822 -15.4785 -15.3893
    14.5957  15.0027  15.4917  15.5872  15.8170  16.0595  18.4143  18.4173
    19.9496  20.4946

          k = 0.2727 0.3636 0.4545 (  3992 PWs)   bands (ev):

   -69.2021 -39.0646 -35.3099 -35.3030 -35.2896 -15.5292 -15.4743 -15.3844
    14.5794  14.9171  15.4521  15.5076  16.1032  16.4659  18.0772  18.3312
    20.0120  20.8206

          k = 0.2727 0.4545 0.4545 (  4000 PWs)   bands (ev):

   -69.2016 -39.0583 -35.3102 -35.3100 -35.2888 -15.5232 -15.5227 -15.3800
    14.5067  14.8769  15.3854  15.4135  16.6254  16.6525  17.9060  18.1706
    20.1897  21.1136

          k = 0.3636 0.3636 0.3636 (  3999 PWs)   bands (ev):

   -69.2018 -39.0607 -35.3021 -35.3021 -35.3018 -15.4725 -15.4722 -15.4722
    14.9948  15.3300  15.4470  15.4470  15.8145  15.8145  18.2411  18.2411
    20.5002  20.5002

          k = 0.3636 0.3636 0.4545 (  4008 PWs)   bands (ev):

   -69.2013 -39.0547 -35.3090 -35.3018 -35.3011 -15.5212 -15.4685 -15.4665
    14.9931  15.1653  15.4767  15.6074  15.7984  16.1604  17.9824  18.1639
    20.5129  20.9126

          k = 0.3636 0.4545 0.4545 (  3994 PWs)   bands (ev):

   -69.2008 -39.0488 -35.3085 -35.3085 -35.3006 -15.5165 -15.5165 -15.4635
    15.1008  15.2495  15.3888  15.4963  16.0924  16.1437  17.8651  18.0301
    20.7353  21.1430

          k = 0.4545 0.4545 0.4545 (  3972 PWs)   bands (ev):

   -69.2003 -39.0431 -35.3076 -35.3075 -35.3075 -15.5128 -15.5128 -15.5124
    15.3317  15.4752  15.4752  15.7775  15.7775  15.8004  17.8552  17.8552
    21.1597  21.1597

     the Fermi energy is    17.5936 ev

!    total energy              =    -448.58655249 Ry
     estimated scf accuracy    <          7.2E-10 Ry
     smearing contrib. (-TS)   =       0.00005038 Ry
     internal energy E=F+TS    =    -448.58660287 Ry

     The total energy is F=E-TS. E is the sum of the following terms:
     one-electron contribution =    -151.34228245 Ry
     hartree contribution      =      91.61721373 Ry
     xc contribution           =     -52.88698660 Ry
     ewald contribution        =    -259.82070277 Ry
     one-center paw contrib.   =     -76.15384478 Ry

     convergence has been achieved in  37 iterations

     negative rho (up, down):  9.642E-04 0.000E+00

     Forces acting on atoms (cartesian axes, Ry/au):

     atom    1 type  1   force =     0.00000000    0.00000000    0.00000000
     atom    2 type  2   force =     0.00000000    0.00000000    0.00000000

     Total force =     0.000000     Total SCF correction =     0.000000


     Computing stress (Cartesian axis) and pressure


     negative rho (up, down):  9.642E-04 0.000E+00
          total   stress  (Ry/bohr**3)                   (kbar)     P=       31.49
   0.00021405   0.00000000   0.00000000           31.49        0.00        0.00
   0.00000000   0.00021405   0.00000000            0.00       31.49        0.00
   0.00000000   0.00000000   0.00021405            0.00        0.00       31.49


     BFGS Geometry Optimization
     Energy error            =      5.3E-02 Ry
     Gradient error          =      0.0E+00 Ry/Bohr
     Cell gradient error     =      2.9E+02 kbar

     number of scf cycles    =   1
     number of bfgs steps    =   0

     enthalpy           new  =    -448.2180899901 Ry

     new trust radius        =       0.1267727782 bohr
     new conv_thr            =       0.0000000100 Ry

     new unit-cell volume =    147.55956 a.u.^3 (    21.86607 Ang^3 )
     density =      7.87603 g/cm^3

CELL_PARAMETERS (alat=  5.55330037)
   0.951563889   0.000000000   0.000000000
   0.000000000   0.951563889   0.000000000
   0.000000000   0.000000000   0.951563889

ATOMIC_POSITIONS (crystal)
Fe               0.5000000000        0.5000000000        0.5000000000
Ti               0.0000000000        0.0000000000        0.0000000000



     Writing config-only to output data dir ./TiFe.save/ :
     XML data file
     NEW-OLD atomic charge density approx. for the potential
     New effective cutoffs (rho, wfc): 1917.08  136.94

     Check: negative core charge=   -0.000001

     negative rho (up, down):  8.753E-04 0.000E+00

     total cpu time spent up to now is       39.6 secs

     per-process dynamical memory:   153.4 Mb

     Self-consistent Calculation

     iteration #  1     ecut=   124.00 Ry     beta= 0.70
     Davidson diagonalization with overlap
     ethr =  1.00E-06,  avg # of iterations = 10.4
     Minimization algorithm failed to find Fermi energy: reverting to bisection
     Possible cause: smearing is larger than the electronic band-gap.

     negative rho (up, down):  9.087E-04 0.000E+00

     total cpu time spent up to now is       41.8 secs

     total energy              =    -448.55036577 Ry
     estimated scf accuracy    <       0.00121915 Ry

     iteration #  2     ecut=   124.00 Ry     beta= 0.70
     Davidson diagonalization with overlap
     ethr =  4.35E-06,  avg # of iterations =  3.9

     negative rho (up, down):  9.198E-04 0.000E+00

     total cpu time spent up to now is       42.9 secs

     total energy              =    -448.54789974 Ry
     estimated scf accuracy    <       0.03650584 Ry

     iteration #  3     ecut=   124.00 Ry     beta= 0.70
     Davidson diagonalization with overlap
     ethr =  4.35E-06,  avg # of iterations =  4.1
     Minimization algorithm failed to find Fermi energy: reverting to bisection
     Possible cause: smearing is larger than the electronic band-gap.

     negative rho (up, down):  9.183E-04 0.000E+00

     total cpu time spent up to now is       44.0 secs

     total energy              =    -448.55172217 Ry
     estimated scf accuracy    <       0.00367752 Ry

     iteration #  4     ecut=   124.00 Ry     beta= 0.70
     Davidson diagonalization with overlap
     ethr =  4.35E-06,  avg # of iterations =  1.9
     Minimization algorithm failed to find Fermi energy: reverting to bisection
     Possible cause: smearing is larger than the electronic band-gap.

     negative rho (up, down):  9.258E-04 0.000E+00

     total cpu time spent up to now is       45.0 secs

     total energy              =    -448.55192295 Ry
     estimated scf accuracy    <       0.00018947 Ry

     iteration #  5     ecut=   124.00 Ry     beta= 0.70
     Davidson diagonalization with overlap
     ethr =  6.77E-07,  avg # of iterations =  3.3

     negative rho (up, down):  9.268E-04 0.000E+00

     total cpu time spent up to now is       45.9 secs

     total energy              =    -448.55194544 Ry
     estimated scf accuracy    <       0.00001677 Ry

     iteration #  6     ecut=   124.00 Ry     beta= 0.70
     Davidson diagonalization with overlap
     ethr =  5.99E-08,  avg # of iterations =  2.2

     negative rho (up, down):  9.269E-04 0.000E+00

     total cpu time spent up to now is       46.9 secs

     total energy              =    -448.55194819 Ry
     estimated scf accuracy    <       0.00000051 Ry

     iteration #  7     ecut=   124.00 Ry     beta= 0.70
     Davidson diagonalization with overlap
     ethr =  1.83E-09,  avg # of iterations =  5.0

     negative rho (up, down):  9.268E-04 0.000E+00

     total cpu time spent up to now is       48.1 secs

     total energy              =    -448.55194868 Ry
     estimated scf accuracy    <       0.00000002 Ry

     iteration #  8     ecut=   124.00 Ry     beta= 0.70
     Davidson diagonalization with overlap
     ethr =  6.85E-11,  avg # of iterations =  4.4

     negative rho (up, down):  9.269E-04 0.000E+00

     total cpu time spent up to now is       49.3 secs

     total energy              =    -448.55194867 Ry
     estimated scf accuracy    <       0.00000007 Ry

     iteration #  9     ecut=   124.00 Ry     beta= 0.70
     Davidson diagonalization with overlap
     ethr =  6.85E-11,  avg # of iterations =  3.1

     negative rho (up, down):  9.269E-04 0.000E+00

     total cpu time spent up to now is       50.3 secs

     End of self-consistent calculation

          k = 0.0000 0.0000 0.0000 (  3911 PWs)   bands (ev):

   -66.0563 -35.5991 -32.1252 -32.1252 -32.1252 -11.6301 -11.6301 -11.6301
    13.0013  16.2479  16.2479  19.7101  19.7101  19.7101  22.5052  22.5052
    24.8781  24.8781

          k = 0.0000 0.0000 0.0955 (  3947 PWs)   bands (ev):

   -66.0557 -35.5963 -32.1283 -32.1244 -32.1244 -11.6795 -11.6277 -11.6277
    13.2007  16.3459  16.3726  19.6958  19.6958  19.7562  22.3683  22.5589
    24.5658  24.5658

          k = 0.0000 0.0000 0.1911 (  3964 PWs)   bands (ev):

   -66.0541 -35.5890 -32.1367 -32.1223 -32.1223 -11.8106 -11.6211 -11.6211
    13.7736  16.6335  16.7047  19.6646  19.6646  19.8858  21.9748  22.6894
    23.8443  23.8443

          k = 0.0000 0.0000 0.2866 (  3988 PWs)   bands (ev):

   -66.0520 -35.5795 -32.1474 -32.1196 -32.1196 -11.9791 -11.6124 -11.6124
    14.6457  17.0885  17.1181  19.6428  19.6428  20.0707  21.3775  22.7830
    23.0486  23.0486

          k = 0.0000 0.0000 0.3821 (  4008 PWs)   bands (ev):

   -66.0501 -35.5709 -32.1570 -32.1171 -32.1171 -12.1309 -11.6044 -11.6044
    15.6861  17.4086  17.6577  19.6493  19.6493  20.2603  20.6745  22.3944
    22.3944  22.6446

          k = 0.0000 0.0000 0.4777 (  3992 PWs)   bands (ev):

   -66.0490 -35.5658 -32.1625 -32.1156 -32.1156 -12.2198 -11.5997 -11.5997
    16.6681  17.3261  18.1784  19.6711  19.6711  20.0731  20.3847  22.0209
    22.0209  22.3309

          k = 0.0000 0.0955 0.0955 (  3966 PWs)   bands (ev):

   -66.0551 -35.5931 -32.1315 -32.1243 -32.1236 -11.6831 -11.6698 -11.6250
    13.3948  16.4493  16.4872  19.5899  19.6722  19.8805  22.3499  22.5213
    24.2199  24.2571

          k = 0.0000 0.0955 0.1911 (  3978 PWs)   bands (ev):

   -66.0535 -35.5847 -32.1399 -32.1238 -32.1216 -11.8068 -11.6673 -11.6179
    13.9512  16.7189  16.8212  19.4904  19.6164  20.0305  22.0471  22.6356
    23.5596  23.5867

          k = 0.0000 0.0955 0.2866 (  3995 PWs)   bands (ev):

   -66.0514 -35.5737 -32.1507 -32.1233 -32.1189 -11.9728 -11.6570 -11.6086
    14.7922  17.1172  17.2576  19.4417  19.5573  20.1380  21.5380  22.6388
    22.9558  22.9703

          k = 0.0000 0.0955 0.3821 (  3991 PWs)   bands (ev):

   -66.0495 -35.5638 -32.1602 -32.1228 -32.1165 -12.1226 -11.6473 -11.6000
    15.7833  17.4384  17.7349  19.4604  19.5022  20.1399  20.9671  22.1270
    22.5634  22.8629

          k = 0.0000 0.0955 0.4777 (  3999 PWs)   bands (ev):

   -66.0484 -35.5579 -32.1657 -32.1226 -32.1150 -12.2103 -11.6416 -11.5949
    16.7032  17.3533  18.1902  19.4114  19.5223  20.0570  20.5744  21.7883
    22.4057  22.6780

          k = 0.0000 0.1911 0.1911 (  3972 PWs)   bands (ev):

   -66.0519 -35.5732 -32.1485 -32.1277 -32.1196 -11.8119 -11.7749 -11.6095
    14.4527  16.9126  17.1787  19.2704  19.5120  20.1361  22.1192  22.5802
    22.9379  23.1789

          k = 0.0000 0.1911 0.2866 (  4003 PWs)   bands (ev):

   -66.0499 -35.5583 -32.1594 -32.1330 -32.1171 -11.9566 -11.7748 -11.5984
    15.1853  17.1550  17.6701  19.1211  19.4253  20.0433  21.8879  22.3063
    22.7854  22.9610

          k = 0.0000 0.1911 0.3821 (  3997 PWs)   bands (ev):

   -66.0480 -35.5446 -32.1690 -32.1381 -32.1147 -12.1004 -11.7612 -11.5882
    15.9937  17.3188  18.1497  19.0824  19.4223  19.7738  21.5078  21.9109
    22.9969  22.9976

          k = 0.0000 0.1911 0.4777 (  3990 PWs)   bands (ev):

   -66.0469 -35.5365 -32.1744 -32.1413 -32.1133 -12.1849 -11.7529 -11.5821
    16.6622  17.2479  18.4661  19.1592  19.4867  19.5022  21.3040  21.6299
    23.0900  23.1290

          k = 0.0000 0.2866 0.2866 (  4000 PWs)   bands (ev):

   -66.0479 -35.5380 -32.1708 -32.1458 -32.1147 -11.9525 -11.9094 -11.5850
    15.6913  17.1628  18.2467  18.8613  19.4282  19.7074  22.0411  22.1736
    22.6844  23.1822

          k = 0.0000 0.2866 0.3821 (  3993 PWs)   bands (ev):

   -66.0460 -35.5194 -32.1807 -32.1580 -32.1125 -12.0715 -11.9077 -11.5726
    16.1358  17.1002  18.7279  18.8121  19.2978  19.6959  21.8385  22.1563
    22.9302  23.5331

          k = 0.0000 0.2866 0.4777 (  3996 PWs)   bands (ev):

   -66.0449 -35.5082 -32.1860 -32.1657 -32.1112 -12.1515 -11.8963 -11.5653
    16.4050  16.9969  18.7509  18.9633  19.1288  20.1722  21.5688  22.0847
    23.2676  23.8478

          k = 0.0000 0.3821 0.3821 (  4002 PWs)   bands (ev):

   -66.0441 -35.4960 -32.1913 -32.1764 -32.1104 -12.0548 -12.0300 -11.5583
    16.1394  16.8885  18.4969  18.8642  19.5614  20.2533  22.0457  22.5925
    22.7588  24.0391

          k = 0.0000 0.3821 0.4777 (  3999 PWs)   bands (ev):

   -66.0430 -35.4820 -32.1970 -32.1881 -32.1092 -12.1207 -12.0258 -11.5498
    16.0986  16.7620  18.4357  18.5633  20.0282  21.0151  21.7875  22.6829
    23.0763  24.4197

          k = 0.0000 0.4777 0.4777 (  3998 PWs)   bands (ev):

   -66.0419 -35.4662 -32.2035 -32.2014 -32.1080 -12.1038 -12.1004 -11.5405
    15.9109  16.6275  18.2861  18.3292  20.8204  21.4544  22.3643  22.5887
    23.0101  24.7589

          k = 0.0955 0.0955 0.0955 (  3959 PWs)   bands (ev):

   -66.0545 -35.5896 -32.1307 -32.1307 -32.1208 -11.6851 -11.6673 -11.6673
    13.5848  16.5754  16.5754  19.5633  19.5633  19.9833  22.4186  22.4186
    23.7052  24.5415

          k = 0.0955 0.0955 0.1911 (  3966 PWs)   bands (ev):

   -66.0529 -35.5802 -32.1410 -32.1286 -32.1201 -11.8028 -11.6673 -11.6606
    14.1275  16.8323  16.9085  19.4266  19.4938  20.0936  22.1233  22.5860
    23.1214  23.8192

          k = 0.0955 0.0955 0.2866 (  3992 PWs)   bands (ev):

   -66.0509 -35.5679 -32.1527 -32.1258 -32.1206 -11.9667 -11.6544 -11.6518
    14.9426  17.2327  17.3117  19.3628  19.4005  20.0885  21.6809  22.5544
    22.9060  23.0395

          k = 0.0955 0.0955 0.3821 (  3994 PWs)   bands (ev):

   -66.0490 -35.5568 -32.1628 -32.1232 -32.1216 -12.1147 -11.6437 -11.6424
    15.8922  17.5590  17.7198  19.2833  19.4173  19.9709  21.1947  22.2524
    22.4174  23.0721

          k = 0.0955 0.0955 0.4777 (  4007 PWs)   bands (ev):

   -66.0478 -35.5502 -32.1686 -32.1223 -32.1216 -12.2014 -11.6389 -11.6352
    16.7625  17.4234  18.1481  19.1317  19.5827  19.8497  20.8551  21.9572
    22.0734  23.2303

          k = 0.0955 0.1911 0.1911 (  3984 PWs)   bands (ev):

   -66.0514 -35.5681 -32.1476 -32.1329 -32.1205 -11.8061 -11.7724 -11.6547
    14.6247  17.0483  17.2375  19.2268  19.3675  20.0569  22.2099  22.5431
    22.7847  23.4683

          k = 0.0955 0.1911 0.2866 (  3994 PWs)   bands (ev):

   -66.0493 -35.5523 -32.1594 -32.1351 -32.1214 -11.9507 -11.7709 -11.6427
    15.3469  17.3020  17.6949  19.0716  19.2682  19.8265  22.0073  22.4619
    22.8179  23.0499

          k = 0.0955 0.1911 0.3821 (  4001 PWs)   bands (ev):

   -66.0474 -35.5379 -32.1701 -32.1382 -32.1210 -12.0935 -11.7572 -11.6314
    16.1346  17.4775  18.0870  18.9940  19.2885  19.5900  21.6952  22.0633
    22.6747  23.4174

          k = 0.0955 0.1911 0.4777 (  3993 PWs)   bands (ev):

   -66.0463 -35.5293 -32.1763 -32.1407 -32.1202 -12.1775 -11.7489 -11.6247
    16.7802  17.3839  18.3180  18.9426  19.3843  19.5845  21.4855  21.7295
    22.4431  23.9296

          k = 0.0955 0.2866 0.2866 (  3989 PWs)   bands (ev):

   -66.0473 -35.5318 -32.1698 -32.1474 -32.1205 -11.9455 -11.9069 -11.6290
    15.8645  17.3168  18.2558  18.8196  19.2471  19.4502  22.1885  22.3566
    22.6660  23.3703

          k = 0.0955 0.2866 0.3821 (  3985 PWs)   bands (ev):

   -66.0454 -35.5130 -32.1803 -32.1584 -32.1190 -12.0660 -11.9041 -11.6162
    16.3044  17.2547  18.6527  18.7527  19.1760  19.5108  21.9422  22.2624
    22.7702  23.8970

          k = 0.0955 0.2866 0.4777 (  4006 PWs)   bands (ev):

   -66.0443 -35.5017 -32.1867 -32.1650 -32.1180 -12.1460 -11.8930 -11.6086
    16.5545  17.1484  18.6495  18.7460  19.2032  20.0392  21.6207  22.2094
    22.7128  24.4847

          k = 0.0955 0.3821 0.3821 (  3992 PWs)   bands (ev):

   -66.0436 -35.4899 -32.1903 -32.1767 -32.1171 -12.0498 -12.0276 -11.6021
    16.3068  17.0431  18.4634  18.7594  19.5150  20.0393  21.9716  22.6116
    22.7104  24.4491

          k = 0.0955 0.3821 0.4777 (  4002 PWs)   bands (ev):

   -66.0425 -35.4761 -32.1965 -32.1873 -32.1159 -12.1171 -12.0231 -11.5937
    16.2558  16.9184  18.4012  18.5064  19.9519  20.8069  21.7083  22.5872
    22.8320  24.7007

          k = 0.0955 0.4777 0.4777 (  3993 PWs)   bands (ev):

   -66.0414 -35.4607 -32.2024 -32.2005 -32.1146 -12.1012 -12.0981 -11.5848
    16.0704  16.7858  18.2641  18.3023  20.7671  21.3388  21.9715  22.1388
    23.0960  24.9654

          k = 0.1911 0.1911 0.1911 (  3989 PWs)   bands (ev):

   -66.0498 -35.5543 -32.1453 -32.1453 -32.1243 -11.7997 -11.7655 -11.7655
    15.1053  17.4043  17.4043  19.1120  19.1120  19.7392  22.4334  22.4334
    22.8716  23.7706

          k = 0.1911 0.1911 0.2866 (  3992 PWs)   bands (ev):

   -66.0478 -35.5363 -32.1605 -32.1423 -32.1302 -11.9352 -11.7640 -11.7564
    15.7854  17.6492  17.8043  18.9538  18.9620  19.3450  22.2656  22.5749
    23.0214  23.2625

          k = 0.1911 0.1911 0.3821 (  3994 PWs)   bands (ev):

   -66.0459 -35.5197 -32.1738 -32.1395 -32.1361 -12.0752 -11.7481 -11.7446
    16.4809  17.8858  17.9185  18.8110  19.0323  19.2547  22.0849  22.3100
    22.4408  23.9684

          k = 0.1911 0.1911 0.4777 (  3986 PWs)   bands (ev):

   -66.0448 -35.5098 -32.1814 -32.1398 -32.1378 -12.1576 -11.7432 -11.7327
    17.0036  17.6124  18.1236  18.6932  19.1990  19.5429  21.8417  21.9688
    22.1215  24.3715

          k = 0.1911 0.2866 0.2866 (  3994 PWs)   bands (ev):

   -66.0458 -35.5152 -32.1673 -32.1526 -32.1353 -11.9269 -11.9001 -11.7457
    16.3452  17.7338  18.2721  18.7171  18.8373  18.9407  22.3404  22.5810
    22.8727  23.8693

          k = 0.1911 0.2866 0.3821 (  3988 PWs)   bands (ev):

   -66.0439 -35.4957 -32.1798 -32.1593 -32.1365 -12.0515 -11.8943 -11.7319
    16.7708  17.6543  18.4113  18.6036  18.9728  19.1056  22.0803  22.3875
    22.7378  24.1728

          k = 0.1911 0.2866 0.4777 (  3991 PWs)   bands (ev):

   -66.0428 -35.4841 -32.1884 -32.1631 -32.1362 -12.1315 -11.8840 -11.7234
    16.9539  17.5089  18.3433  18.5614  19.1245  19.7268  21.6921  22.1737
    22.6177  24.4559

          k = 0.1911 0.3821 0.3821 (  3990 PWs)   bands (ev):

   -66.0421 -35.4735 -32.1875 -32.1774 -32.1350 -12.0364 -12.0211 -11.7184
    16.7821  17.4422  18.3818  18.5424  19.3670  19.4963  21.9226  22.2517
    23.0656  24.3685

          k = 0.1911 0.3821 0.4777 (  3993 PWs)   bands (ev):

   -66.0410 -35.4603 -32.1951 -32.1852 -32.1339 -12.1074 -12.0157 -11.7103
    16.6995  17.3211  18.3190  18.3946  19.6874  20.2504  21.6236  22.0432
    23.1626  24.6723

          k = 0.1911 0.4777 0.4777 (  4002 PWs)   bands (ev):

   -66.0399 -35.4460 -32.1995 -32.1981 -32.1325 -12.0941 -12.0920 -11.7025
    16.5263  17.2049  18.2155  18.2460  20.4894  20.6948  21.5150  21.6927
    23.4066  25.0243

          k = 0.2866 0.2866 0.2866 (  3998 PWs)   bands (ev):

   -66.0438 -35.4933 -32.1639 -32.1639 -32.1502 -11.9074 -11.8911 -11.8911
    16.9789  18.2683  18.2683  18.3550  18.6072  18.6072  22.3718  22.3718
    23.4439  23.4439

          k = 0.2866 0.2866 0.3821 (  3992 PWs)   bands (ev):

   -66.0419 -35.4730 -32.1803 -32.1608 -32.1579 -12.0328 -11.8829 -11.8790
    17.3480  17.9528  18.2324  18.5337  18.6624  18.9209  22.0928  22.1084
    23.2509  24.0598

          k = 0.2866 0.2866 0.4777 (  3990 PWs)   bands (ev):

   -66.0408 -35.4609 -32.1911 -32.1615 -32.1589 -12.1123 -11.8780 -11.8657
    17.3446  17.7529  18.1977  18.4993  18.9716  19.5056  21.6260  21.9470
    23.1831  24.4917

          k = 0.2866 0.3821 0.3821 (  3988 PWs)   bands (ev):

   -66.0401 -35.4520 -32.1838 -32.1784 -32.1583 -12.0189 -12.0127 -11.8683
    17.4528  17.8529  18.2996  18.4812  18.8784  19.1154  21.8661  21.8934
    23.6306  24.3023

          k = 0.2866 0.3821 0.4777 (  3992 PWs)   bands (ev):

   -66.0390 -35.4394 -32.1937 -32.1821 -32.1575 -12.0948 -12.0059 -11.8606
    17.3168  17.7536  18.2527  18.3907  19.2455  19.6492  21.4923  21.7651
    23.7091  24.7111

          k = 0.2866 0.4777 0.4777 (  4000 PWs)   bands (ev):

   -66.0380 -35.4266 -32.1956 -32.1948 -32.1559 -12.0848 -12.0839 -11.8542
    17.2005  17.7231  18.1845  18.2350  19.8723  19.8748  21.2716  21.5870
    23.9366  25.0694

          k = 0.3821 0.3821 0.3821 (  3999 PWs)   bands (ev):

   -66.0383 -35.4321 -32.1804 -32.1804 -32.1788 -12.0048 -12.0048 -12.0016
    17.7361  18.2703  18.2703  18.4956  18.8099  18.8099  21.6657  21.6657
    24.3082  24.3082

          k = 0.3821 0.3821 0.4777 (  4008 PWs)   bands (ev):

   -66.0372 -35.4202 -32.1925 -32.1799 -32.1783 -12.0832 -12.0002 -11.9930
    17.7428  18.0065  18.3310  18.5412  18.9130  19.2481  21.3633  21.5663
    24.3240  24.8229

          k = 0.3821 0.4777 0.4777 (  3994 PWs)   bands (ev):

   -66.0362 -35.4087 -32.1920 -32.1919 -32.1773 -12.0765 -12.0762 -11.9911
    17.8772  18.1323  18.2265  18.4156  19.1935  19.2299  21.2137  21.4121
    24.6028  25.1066

          k = 0.4777 0.4777 0.4777 (  3972 PWs)   bands (ev):

   -66.0351 -35.3980 -32.1902 -32.1899 -32.1899 -12.0721 -12.0721 -12.0706
    18.1847  18.3911  18.3911  18.7290  18.7290  18.8220  21.2005  21.2005
    25.1281  25.1281

     the Fermi energy is    20.8888 ev

!    total energy              =    -448.55194867 Ry
     estimated scf accuracy    <          9.5E-10 Ry
     smearing contrib. (-TS)   =       0.00007237 Ry
     internal energy E=F+TS    =    -448.55202105 Ry

     The total energy is F=E-TS. E is the sum of the following terms:
     one-electron contribution =    -131.13869204 Ry
     hartree contribution      =      84.96980576 Ry
     xc contribution           =     -53.18026759 Ry
     ewald contribution        =    -273.04598858 Ry
     one-center paw contrib.   =     -76.15687860 Ry

     convergence has been achieved in   9 iterations

     negative rho (up, down):  9.269E-04 0.000E+00

     Forces acting on atoms (cartesian axes, Ry/au):

     atom    1 type  1   force =     0.00000000    0.00000000    0.00000000
     atom    2 type  2   force =     0.00000000    0.00000000    0.00000000

     Total force =     0.000000     Total SCF correction =     0.000000


     Computing stress (Cartesian axis) and pressure


     negative rho (up, down):  9.269E-04 0.000E+00
          total   stress  (Ry/bohr**3)                   (kbar)     P=      446.68
   0.00303648   0.00000000   0.00000000          446.68        0.00        0.00
   0.00000000   0.00303648   0.00000000            0.00      446.68        0.00
   0.00000000   0.00000000   0.00303648            0.00        0.00      446.68

     Energy error            =      1.6E-02 Ry
     Gradient error          =      0.0E+00 Ry/Bohr
     Cell gradient error     =      1.3E+02 kbar

     number of scf cycles    =   2
     number of bfgs steps    =   1

     enthalpy           old  =    -448.2180899901 Ry
     enthalpy           new  =    -448.2344754092 Ry

     CASE: enthalpy          _new < enthalpy          _old

     new trust radius        =       0.0361828516 bohr
     new conv_thr            =            1.0E-10 Ry

     new unit-cell volume =    154.25116 a.u.^3 (    22.85766 Ang^3 )
     density =      7.53436 g/cm^3

CELL_PARAMETERS (alat=  5.55330037)
   0.965735756   0.000000000   0.000000000
   0.000000000   0.965735756   0.000000000
   0.000000000   0.000000000   0.965735756

ATOMIC_POSITIONS (crystal)
Fe               0.5000000000        0.5000000000        0.5000000000
Ti               0.0000000000        0.0000000000        0.0000000000



     Writing config-only to output data dir ./TiFe.save/ :
     XML data file
     NEW-OLD atomic charge density approx. for the potential
     New effective cutoffs (rho, wfc): 1861.23  132.95

     Check: negative core charge=   -0.000002

     negative rho (up, down):  9.365E-04 0.000E+00

     total cpu time spent up to now is       52.3 secs

     per-process dynamical memory:   153.4 Mb

     Self-consistent Calculation

     iteration #  1     ecut=   124.00 Ry     beta= 0.70
     Davidson diagonalization with overlap
     ethr =  1.00E-06,  avg # of iterations =  8.6

     negative rho (up, down):  9.348E-04 0.000E+00

     total cpu time spent up to now is       54.1 secs

     total energy              =    -448.56707315 Ry
     estimated scf accuracy    <       0.00095881 Ry

     iteration #  2     ecut=   124.00 Ry     beta= 0.70
     Davidson diagonalization with overlap
     ethr =  3.42E-06,  avg # of iterations =  4.8

     negative rho (up, down):  9.244E-04 0.000E+00

     total cpu time spent up to now is       55.3 secs

     total energy              =    -448.56413198 Ry
     estimated scf accuracy    <       0.07777318 Ry

     iteration #  3     ecut=   124.00 Ry     beta= 0.70
     Davidson diagonalization with overlap
     ethr =  3.42E-06,  avg # of iterations =  4.7

     negative rho (up, down):  9.340E-04 0.000E+00

     total cpu time spent up to now is       56.5 secs

     total energy              =    -448.56869449 Ry
     estimated scf accuracy    <       0.00023026 Ry

     iteration #  4     ecut=   124.00 Ry     beta= 0.70
     Davidson diagonalization with overlap
     ethr =  8.22E-07,  avg # of iterations =  2.2

     negative rho (up, down):  9.366E-04 0.000E+00

     total cpu time spent up to now is       57.5 secs

     total energy              =    -448.56874122 Ry
     estimated scf accuracy    <       0.00001977 Ry

     iteration #  5     ecut=   124.00 Ry     beta= 0.70
     Davidson diagonalization with overlap
     ethr =  7.06E-08,  avg # of iterations =  4.2

     negative rho (up, down):  9.345E-04 0.000E+00

     total cpu time spent up to now is       58.7 secs

     total energy              =    -448.56875182 Ry
     estimated scf accuracy    <       0.00000144 Ry

     iteration #  6     ecut=   124.00 Ry     beta= 0.70
     Davidson diagonalization with overlap
     ethr =  5.13E-09,  avg # of iterations =  3.8

     negative rho (up, down):  9.350E-04 0.000E+00

     total cpu time spent up to now is       59.8 secs

     total energy              =    -448.56875242 Ry
     estimated scf accuracy    <       0.00000104 Ry

     iteration #  7     ecut=   124.00 Ry     beta= 0.70
     Davidson diagonalization with overlap
     ethr =  3.70E-09,  avg # of iterations =  1.9

     negative rho (up, down):  9.352E-04 0.000E+00

     total cpu time spent up to now is       60.8 secs

     total energy              =    -448.56875250 Ry
     estimated scf accuracy    <       0.00000006 Ry

     iteration #  8     ecut=   124.00 Ry     beta= 0.70
     Davidson diagonalization with overlap
     ethr =  2.31E-10,  avg # of iterations =  4.6

     negative rho (up, down):  9.352E-04 0.000E+00

     total cpu time spent up to now is       62.0 secs

     total energy              =    -448.56875254 Ry
     estimated scf accuracy    <          3.0E-09 Ry

     iteration #  9     ecut=   124.00 Ry     beta= 0.70
     Davidson diagonalization with overlap
     ethr =  1.09E-11,  avg # of iterations =  4.3

     negative rho (up, down):  9.352E-04 0.000E+00

     total cpu time spent up to now is       63.1 secs

     total energy              =    -448.56875254 Ry
     estimated scf accuracy    <          1.1E-09 Ry

     iteration # 10     ecut=   124.00 Ry     beta= 0.70
     Davidson diagonalization with overlap
     ethr =  3.78E-12,  avg # of iterations =  2.1

     negative rho (up, down):  9.352E-04 0.000E+00

     total cpu time spent up to now is       64.1 secs

     total energy              =    -448.56875254 Ry
     estimated scf accuracy    <          1.7E-10 Ry

     iteration # 11     ecut=   124.00 Ry     beta= 0.70
     Davidson diagonalization with overlap
     ethr =  6.06E-13,  avg # of iterations =  3.1

     negative rho (up, down):  9.352E-04 0.000E+00

     total cpu time spent up to now is       65.1 secs

     End of self-consistent calculation

          k = 0.0000 0.0000 0.0000 (  3911 PWs)   bands (ev):

   -67.0378 -36.6916 -33.1043 -33.1043 -33.1043 -12.7468 -12.7468 -12.7468
    12.0937  15.5112  15.5112  18.7610  18.7610  18.7610  21.4163  21.4163
    23.6541  23.6541

          k = 0.0000 0.0000 0.0941 (  3947 PWs)   bands (ev):

   -67.0373 -36.6890 -33.1074 -33.1037 -33.1037 -12.7892 -12.7445 -12.7445
    12.2846  15.6046  15.6243  18.7470  18.7470  18.8045  21.2895  21.4654
    23.3609  23.3609

          k = 0.0000 0.0000 0.1883 (  3964 PWs)   bands (ev):

   -67.0360 -36.6819 -33.1156 -33.1020 -33.1020 -12.9018 -12.7385 -12.7385
    12.8349  15.8784  15.9234  18.7161  18.7161  18.9265  20.9246  21.5821
    22.6824  22.6824

          k = 0.0000 0.0000 0.2824 (  3988 PWs)   bands (ev):

   -67.0344 -36.6727 -33.1261 -33.0998 -33.0998 -13.0468 -12.7306 -12.7306
    13.6781  16.2878  16.3109  18.6927  18.6927  19.1003  20.3692  21.6544
    21.9338  21.9338

          k = 0.0000 0.0000 0.3765 (  4008 PWs)   bands (ev):

   -67.0329 -36.6643 -33.1356 -33.0978 -33.0978 -13.1778 -12.7233 -12.7233
    14.6952  16.5192  16.8504  18.6947  18.6947  19.2781  19.7137  21.3195
    21.3195  21.4948

          k = 0.0000 0.0000 0.4707 (  3992 PWs)   bands (ev):

   -67.0319 -36.6593 -33.1411 -33.0966 -33.0966 -13.2547 -12.7189 -12.7189
    15.6772  16.3763  17.3406  18.7116  18.7116  19.1532  19.3945  20.9700
    20.9700  21.1767

          k = 0.0000 0.0941 0.0941 (  3966 PWs)   bands (ev):

   -67.0368 -36.6860 -33.1096 -33.1044 -33.1031 -12.7918 -12.7811 -12.7421
    12.4709  15.7002  15.7309  18.6489  18.7243  18.9193  21.2722  21.4305
    23.0375  23.0701

          k = 0.0000 0.0941 0.1883 (  3978 PWs)   bands (ev):

   -67.0356 -36.6782 -33.1175 -33.1042 -33.1014 -12.8984 -12.7785 -12.7357
    13.0066  15.9542  16.0351  18.5555  18.6698  19.0585  20.9913  21.5327
    22.4127  22.4430

          k = 0.0000 0.0941 0.2824 (  3995 PWs)   bands (ev):

   -67.0339 -36.6679 -33.1281 -33.1035 -33.0993 -13.0415 -12.7692 -12.7273
    13.8224  16.3179  16.4370  18.5081  18.6106  19.1584  20.5180  21.5245
    21.8399  21.8634

          k = 0.0000 0.0941 0.3765 (  3991 PWs)   bands (ev):

   -67.0324 -36.6586 -33.1377 -33.1028 -33.0973 -13.1709 -12.7605 -12.7195
    14.7960  16.5608  16.9082  18.5219  18.5562  19.1618  19.9838  21.0462
    21.4794  21.7218

          k = 0.0000 0.0941 0.4707 (  3999 PWs)   bands (ev):

   -67.0315 -36.6530 -33.1434 -33.1024 -33.0961 -13.2468 -12.7554 -12.7149
    15.7218  16.4116  17.3455  18.4733  18.5748  19.0889  19.6106  20.7220
    21.3285  21.5292

          k = 0.0000 0.1883 0.1883 (  3972 PWs)   bands (ev):

   -67.0343 -36.6682 -33.1238 -33.1088 -33.0998 -12.9019 -12.8721 -12.7282
    13.4942  16.1312  16.3678  18.3502  18.5671  19.1542  21.0570  21.4819
    21.8231  22.0624

          k = 0.0000 0.1883 0.2824 (  4003 PWs)   bands (ev):

   -67.0327 -36.6551 -33.1339 -33.1131 -33.0978 -13.0278 -12.8713 -12.7184
    14.2152  16.3498  16.8210  18.2099  18.4768  19.0668  20.8444  21.2167
    21.6714  21.8567

          k = 0.0000 0.1883 0.3765 (  3997 PWs)   bands (ev):

   -67.0312 -36.6431 -33.1436 -33.1163 -33.0958 -13.1524 -12.8595 -12.7094
    15.0290  16.4735  17.2684  18.1717  18.4628  18.8169  20.4890  20.8382
    21.8519  21.8872

          k = 0.0000 0.1883 0.4707 (  3990 PWs)   bands (ev):

   -67.0303 -36.6360 -33.1494 -33.1181 -33.0947 -13.2257 -12.8522 -12.7040
    15.7304  16.3477  17.5728  18.2395  18.5268  18.5528  20.2957  20.5672
    21.9170  22.0066

          k = 0.0000 0.2824 0.2824 (  4000 PWs)   bands (ev):

   -67.0310 -36.6383 -33.1425 -33.1244 -33.0958 -13.0237 -12.9890 -12.7068
    14.7385  16.3462  17.3575  17.9666  18.4590  18.7531  20.9656  21.1106
    21.5703  22.0624

          k = 0.0000 0.2824 0.3765 (  3993 PWs)   bands (ev):

   -67.0295 -36.6228 -33.1516 -33.1336 -33.0940 -13.1283 -12.9869 -12.6961
    15.2271  16.2639  17.8407  17.8830  18.3713  18.6873  20.7676  21.0925
    21.7888  22.3888

          k = 0.0000 0.2824 0.4707 (  3996 PWs)   bands (ev):

   -67.0286 -36.6135 -33.1575 -33.1386 -33.0929 -13.1980 -12.9772 -12.6898
    15.5477  16.1328  17.8601  18.0602  18.1745  19.1252  20.5041  21.0304
    22.0802  22.6815

          k = 0.0000 0.3765 0.3765 (  4002 PWs)   bands (ev):

   -67.0281 -36.6039 -33.1596 -33.1489 -33.0923 -13.1142 -13.0941 -12.6839
    15.2950  16.0514  17.6239  17.9657  18.5870  19.1940  20.9441  21.5048
    21.6183  22.8624

          k = 0.0000 0.3765 0.4707 (  3999 PWs)   bands (ev):

   -67.0272 -36.5927 -33.1652 -33.1573 -33.0912 -13.1725 -13.0904 -12.6766
    15.2925  15.9220  17.5656  17.6846  19.0222  19.9234  20.6891  21.5874
    21.8944  23.2182

          k = 0.0000 0.4707 0.4707 (  3998 PWs)   bands (ev):

   -67.0263 -36.5803 -33.1698 -33.1683 -33.0902 -13.1584 -13.1557 -12.6688
    15.1289  15.8000  17.4251  17.4653  19.7869  20.3724  21.1967  21.4095
    21.8917  23.5360

          k = 0.0941 0.0941 0.0941 (  3959 PWs)   bands (ev):

   -67.0364 -36.6828 -33.1090 -33.1090 -33.1018 -12.7932 -12.7788 -12.7788
    12.6535  15.8149  15.8149  18.6235  18.6235  19.0135  21.3354  21.3354
    22.5532  23.3376

          k = 0.0941 0.0941 0.1883 (  3966 PWs)   bands (ev):

   -67.0351 -36.6743 -33.1182 -33.1073 -33.1015 -12.8949 -12.7783 -12.7727
    13.1770  16.0596  16.1161  18.4951  18.5568  19.1140  21.0618  21.4869
    22.0041  22.6575

          k = 0.0941 0.0941 0.2824 (  3992 PWs)   bands (ev):

   -67.0335 -36.6631 -33.1295 -33.1050 -33.1016 -13.0363 -12.7670 -12.7646
    13.9697  16.4404  16.4722  18.4323  18.4670  19.1088  20.6508  21.4501
    21.7925  21.9228

          k = 0.0941 0.0941 0.3765 (  3994 PWs)   bands (ev):

   -67.0319 -36.6529 -33.1395 -33.1029 -33.1019 -13.1643 -12.7572 -12.7565
    14.9062  16.6652  16.9024  18.3550  18.4778  19.0018  20.1967  21.1519
    21.3376  21.9330

          k = 0.0941 0.0941 0.4707 (  4007 PWs)   bands (ev):

   -67.0310 -36.6468 -33.1454 -33.1022 -33.1016 -13.2394 -12.7528 -12.7502
    15.7857  16.4806  17.3081  18.2122  18.6257  18.8912  19.8766  20.8569
    21.0152  22.0710

          k = 0.0941 0.1883 0.1883 (  3984 PWs)   bands (ev):

   -67.0339 -36.6638 -33.1232 -33.1118 -33.1019 -12.8970 -12.8698 -12.7673
    13.6600  16.2564  16.4239  18.3086  18.4352  19.0766  21.1409  21.4476
    21.6839  22.3277

          k = 0.0941 0.1883 0.2824 (  3994 PWs)   bands (ev):

   -67.0322 -36.6502 -33.1338 -33.1142 -33.1019 -13.0228 -12.8679 -12.7567
    14.3708  16.4878  16.8438  18.1619  18.3342  18.8622  20.9544  21.3610
    21.7055  21.9348

          k = 0.0941 0.1883 0.3765 (  4001 PWs)   bands (ev):

   -67.0307 -36.6376 -33.1444 -33.1162 -33.1012 -13.1466 -12.8560 -12.7469
    15.1651  16.6226  17.2106  18.0849  18.3429  18.6430  20.6659  20.9788
    21.5620  22.2660

          k = 0.0941 0.1883 0.4707 (  3993 PWs)   bands (ev):

   -67.0298 -36.6302 -33.1507 -33.1175 -33.1005 -13.2195 -12.8487 -12.7409
    15.8432  16.4756  17.4441  18.0274  18.4440  18.6154  20.4688  20.6566
    21.3383  22.7359

          k = 0.0941 0.2824 0.2824 (  3989 PWs)   bands (ev):

   -67.0306 -36.6332 -33.1417 -33.1255 -33.1008 -13.0179 -12.9866 -12.7448
    14.9030  16.4903  17.3671  17.9254  18.2958  18.5103  21.1025  21.2862
    21.5519  22.2318

          k = 0.0941 0.2824 0.3765 (  3985 PWs)   bands (ev):

   -67.0291 -36.6175 -33.1514 -33.1338 -33.0995 -13.1236 -12.9837 -12.7338
    15.3879  16.4087  17.7641  17.8356  18.2506  18.5185  20.8640  21.1949
    21.6432  22.7205

          k = 0.0941 0.2824 0.4707 (  4006 PWs)   bands (ev):

   -67.0282 -36.6082 -33.1579 -33.1380 -33.0986 -13.1933 -12.9742 -12.7272
    15.6910  16.2762  17.7641  17.8451  18.2479  19.0052  20.5511  21.1494
    21.5798  23.2772

          k = 0.0941 0.3765 0.3765 (  3992 PWs)   bands (ev):

   -67.0276 -36.5990 -33.1588 -33.1490 -33.0979 -13.1098 -13.0918 -12.7217
    15.4559  16.1960  17.5912  17.8658  18.5415  18.9922  20.8846  21.4783
    21.6178  23.2390

          k = 0.0941 0.3765 0.4707 (  4002 PWs)   bands (ev):

   -67.0267 -36.5879 -33.1647 -33.1567 -33.0969 -13.1692 -13.0878 -12.7145
    15.4431  16.0693  17.5316  17.6293  18.9458  19.7225  20.6248  21.4483
    21.7294  23.4880

          k = 0.0941 0.4707 0.4707 (  3993 PWs)   bands (ev):

   -67.0258 -36.5757 -33.1690 -33.1676 -33.0958 -13.1559 -13.1534 -12.7069
    15.2812  15.9485  17.4028  17.4382  19.7316  20.2450  20.8541  20.9977
    21.9765  23.7406

          k = 0.1883 0.1883 0.1883 (  3989 PWs)   bands (ev):

   -67.0326 -36.6522 -33.1213 -33.1213 -33.1061 -12.8915 -12.8634 -12.8634
    14.1263  16.5831  16.5831  18.1984  18.1984  18.7765  21.3463  21.3463
    21.7605  22.6106

          k = 0.1883 0.1883 0.2824 (  3992 PWs)   bands (ev):

   -67.0310 -36.6369 -33.1346 -33.1188 -33.1106 -13.0096 -12.8619 -12.8551
    14.7971  16.8170  16.9408  18.0458  18.0530  18.4087  21.1917  21.4644
    21.9048  22.1229

          k = 0.1883 0.1883 0.3765 (  3994 PWs)   bands (ev):

   -67.0295 -36.6229 -33.1470 -33.1165 -33.1145 -13.1311 -12.8474 -12.8455
    15.5078  16.9866  17.0755  17.9044  18.1069  18.3237  21.0267  21.1966
    21.3570  22.7814

          k = 0.1883 0.1883 0.4707 (  3986 PWs)   bands (ev):

   -67.0286 -36.6145 -33.1543 -33.1168 -33.1152 -13.2027 -12.8429 -12.8356
    16.0690  16.6972  17.2759  17.7847  18.2569  18.5727  20.7445  20.9247
    21.0521  23.1790

          k = 0.1883 0.2824 0.2824 (  3994 PWs)   bands (ev):

   -67.0294 -36.6195 -33.1396 -33.1288 -33.1140 -13.0023 -12.9802 -12.8458
    15.3602  16.8816  17.3861  17.8222  17.9281  18.0238  21.2470  21.4687
    21.7732  22.6880

          k = 0.1883 0.2824 0.3765 (  3988 PWs)   bands (ev):

   -67.0279 -36.6035 -33.1510 -33.1340 -33.1142 -13.1110 -12.9749 -12.8339
    15.8332  16.7854  17.5309  17.7069  18.0352  18.1578  20.9939  21.2809
    21.6468  22.9959

          k = 0.1883 0.2824 0.4707 (  3991 PWs)   bands (ev):

   -67.0270 -36.5939 -33.1591 -33.1363 -33.1139 -13.1807 -12.9661 -12.8266
    16.0752  16.6217  17.4755  17.6611  18.1629  18.7238  20.6123  21.0836
    21.5368  23.2594

          k = 0.1883 0.3765 0.3765 (  3990 PWs)   bands (ev):

   -67.0264 -36.5855 -33.1565 -33.1493 -33.1129 -13.0982 -13.0856 -12.8222
    15.9138  16.5707  17.5111  17.6559  18.3979  18.4864  20.8450  21.1409
    21.9552  23.1818

          k = 0.1883 0.3765 0.4707 (  3993 PWs)   bands (ev):

   -67.0255 -36.5748 -33.1636 -33.1548 -33.1120 -13.1604 -13.0808 -12.8152
    15.8692  16.4504  17.4508  17.5158  18.6848  19.2039  20.5486  20.9493
    22.0458  23.4661

          k = 0.1883 0.4707 0.4707 (  4002 PWs)   bands (ev):

   -67.0247 -36.5634 -33.1666 -33.1656 -33.1108 -13.1492 -13.1474 -12.8084
    15.7168  16.3425  17.3521  17.3795  19.4510  19.6206  20.4357  20.6192
    22.2721  23.7999

          k = 0.2824 0.2824 0.2824 (  3998 PWs)   bands (ev):

   -67.0278 -36.6016 -33.1369 -33.1369 -33.1272 -12.9861 -12.9719 -12.9719
    15.9726  17.3910  17.3910  17.4734  17.7057  17.7057  21.2694  21.2694
    22.3134  22.3134

          k = 0.2824 0.2824 0.3765 (  3992 PWs)   bands (ev):

   -67.0263 -36.5850 -33.1513 -33.1344 -33.1326 -13.0949 -12.9641 -12.9621
    16.3963  17.0745  17.3667  17.6226  17.7398  17.9863  20.9960  21.0234
    22.1334  22.8920

          k = 0.2824 0.2824 0.4707 (  3990 PWs)   bands (ev):

   -67.0254 -36.5751 -33.1607 -33.1349 -33.1329 -13.1641 -12.9596 -12.9509
    16.4654  16.8682  17.3379  17.5836  18.0057  18.5213  20.5479  20.8732
    22.0700  23.2948

          k = 0.2824 0.3765 0.3765 (  3988 PWs)   bands (ev):

   -67.0248 -36.5679 -33.1536 -33.1498 -33.1325 -13.0829 -13.0775 -12.9520
    16.5722  16.9599  17.4280  17.5781  17.9107  18.1578  20.7906  20.8085
    22.4892  23.1214

          k = 0.2824 0.3765 0.4707 (  3992 PWs)   bands (ev):

   -67.0240 -36.5577 -33.1623 -33.1523 -33.1317 -13.1490 -13.0716 -12.9452
    16.4668  16.8697  17.3832  17.4903  18.2575  18.6491  20.4260  20.6952
    22.5627  23.5042

          k = 0.2824 0.4707 0.4707 (  4000 PWs)   bands (ev):

   -67.0231 -36.5473 -33.1635 -33.1630 -33.1304 -13.1403 -13.1395 -12.9394
    16.3624  16.8337  17.3149  17.3569  18.8517  18.8634  20.2211  20.5219
    22.7743  23.8426

          k = 0.3765 0.3765 0.3765 (  3999 PWs)   bands (ev):

   -67.0234 -36.5516 -33.1509 -33.1509 -33.1498 -13.0700 -13.0700 -13.0683
    16.8853  17.3934  17.3934  17.4979  17.8708  17.8708  20.5979  20.5979
    23.1273  23.1273

          k = 0.3765 0.3765 0.4707 (  4008 PWs)   bands (ev):

   -67.0225 -36.5419 -33.1612 -33.1504 -33.1492 -13.1384 -13.0655 -13.0605
    16.8884  17.1233  17.4465  17.6188  17.9337  18.2791  20.3084  20.5058
    23.1422  23.6100

          k = 0.3765 0.4707 0.4707 (  3994 PWs)   bands (ev):

   -67.0217 -36.5324 -33.1606 -33.1605 -33.1484 -13.1323 -13.1321 -13.0579
    17.0134  17.2343  17.3436  17.5019  18.2195  18.2619  20.1692  20.3576
    23.4032  23.8774

          k = 0.4707 0.4707 0.4707 (  3972 PWs)   bands (ev):

   -67.0208 -36.5236 -33.1592 -33.1589 -33.1589 -13.1279 -13.1279 -13.1269
    17.2964  17.4830  17.4830  17.8038  17.8038  17.8742  20.1571  20.1571
    23.8974  23.8974

     the Fermi energy is    19.9042 ev

!    total energy              =    -448.56875254 Ry
     estimated scf accuracy    <          1.0E-11 Ry
     smearing contrib. (-TS)   =      -0.00002643 Ry
     internal energy E=F+TS    =    -448.56872610 Ry

     The total energy is F=E-TS. E is the sum of the following terms:
     one-electron contribution =    -137.22617715 Ry
     hartree contribution      =      86.93993412 Ry
     xc contribution           =     -53.08738675 Ry
     ewald contribution        =    -269.03912495 Ry
     one-center paw contrib.   =     -76.15597137 Ry

     convergence has been achieved in  11 iterations

     negative rho (up, down):  9.352E-04 0.000E+00

     Forces acting on atoms (cartesian axes, Ry/au):

     atom    1 type  1   force =     0.00000000    0.00000000    0.00000000
     atom    2 type  2   force =     0.00000000    0.00000000    0.00000000

     Total force =     0.000000     Total SCF correction =     0.000000


     Computing stress (Cartesian axis) and pressure


     negative rho (up, down):  9.352E-04 0.000E+00
          total   stress  (Ry/bohr**3)                   (kbar)     P=      297.60
   0.00202304   0.00000000   0.00000000          297.60        0.00        0.00
   0.00000000   0.00202304   0.00000000            0.00      297.60        0.00
   0.00000000   0.00000000   0.00202304            0.00        0.00      297.60

     Energy error            =      2.4E-03 Ry
     Gradient error          =      0.0E+00 Ry/Bohr
     Cell gradient error     =      1.9E+01 kbar

     number of scf cycles    =   3
     number of bfgs steps    =   2

     enthalpy           old  =    -448.2344754092 Ry
     enthalpy           new  =    -448.2368823575 Ry

     CASE: enthalpy          _new < enthalpy          _old

     new trust radius        =       0.0047407800 bohr
     new conv_thr            =            1.0E-10 Ry

     new unit-cell volume =    153.36965 a.u.^3 (    22.72704 Ang^3 )
     density =      7.57766 g/cm^3

CELL_PARAMETERS (alat=  5.55330037)
   0.963892592   0.000000000   0.000000000
   0.000000000   0.963892592   0.000000000
   0.000000000   0.000000000   0.963892592

ATOMIC_POSITIONS (crystal)
Fe               0.5000000000        0.5000000000        0.5000000000
Ti               0.0000000000        0.0000000000        0.0000000000



     Writing config-only to output data dir ./TiFe.save/ :
     XML data file
     NEW-OLD atomic charge density approx. for the potential
     New effective cutoffs (rho, wfc): 1868.36  133.46

     Check: negative core charge=   -0.000002

     negative rho (up, down):  9.315E-04 0.000E+00

     total cpu time spent up to now is       67.0 secs

     per-process dynamical memory:   153.4 Mb

     Self-consistent Calculation

     iteration #  1     ecut=   124.00 Ry     beta= 0.70
     Davidson diagonalization with overlap
     ethr =  1.00E-06,  avg # of iterations =  3.0

     Threshold (ethr) on eigenvalues was too large:
     Diagonalizing with lowered threshold

     Davidson diagonalization with overlap
     ethr =  4.29E-09,  avg # of iterations =  5.8

     negative rho (up, down):  9.330E-04 0.000E+00

     total cpu time spent up to now is       69.4 secs

     total energy              =    -448.56689198 Ry
     estimated scf accuracy    <       0.00000197 Ry

     iteration #  2     ecut=   124.00 Ry     beta= 0.70
     Davidson diagonalization with overlap
     ethr =  7.02E-09,  avg # of iterations =  4.1

[...]
     estimated scf accuracy    <       0.00010684 Ry

     iteration # 20     ecut=   124.00 Ry     beta= 0.70
     Davidson diagonalization with overlap
     ethr =  2.70E-07,  avg # of iterations =  3.1

     negative rho (up, down):  9.591E-04 0.000E+00

     total cpu time spent up to now is      109.5 secs

     total energy              =    -448.56663663 Ry
     estimated scf accuracy    <       0.00002168 Ry

     iteration # 21     ecut=   124.00 Ry     beta= 0.70
     Davidson diagonalization with overlap
     ethr =  7.74E-08,  avg # of iterations =  1.9

     negative rho (up, down):  9.590E-04 0.000E+00

     total cpu time spent up to now is      110.4 secs

     total energy              =    -448.56663647 Ry
     estimated scf accuracy    <       0.00000501 Ry

     iteration # 22     ecut=   124.00 Ry     beta= 0.70
     Davidson diagonalization with overlap
     ethr =  1.79E-08,  avg # of iterations =  3.1

     negative rho (up, down):  9.592E-04 0.000E+00

     total cpu time spent up to now is      111.3 secs

     total energy              =    -448.56663682 Ry
     estimated scf accuracy    <       0.00000073 Ry

     iteration # 23     ecut=   124.00 Ry     beta= 0.70
     Davidson diagonalization with overlap
     ethr =  2.61E-09,  avg # of iterations =  3.1

     negative rho (up, down):  9.591E-04 0.000E+00

     total cpu time spent up to now is      112.3 secs

     total energy              =    -448.56663694 Ry
     estimated scf accuracy    <       0.00000060 Ry

     iteration # 24     ecut=   124.00 Ry     beta= 0.70
     Davidson diagonalization with overlap
     ethr =  2.15E-09,  avg # of iterations =  1.6

     negative rho (up, down):  9.590E-04 0.000E+00

     total cpu time spent up to now is      113.1 secs

     total energy              =    -448.56663699 Ry
     estimated scf accuracy    <          7.0E-09 Ry

     iteration # 25     ecut=   124.00 Ry     beta= 0.70
     Davidson diagonalization with overlap
     ethr =  2.50E-11,  avg # of iterations =  5.2

     negative rho (up, down):  9.590E-04 0.000E+00

     total cpu time spent up to now is      114.3 secs

     total energy              =    -448.56663700 Ry
     estimated scf accuracy    <          1.8E-09 Ry

     iteration # 26     ecut=   124.00 Ry     beta= 0.70
     Davidson diagonalization with overlap
     ethr =  6.30E-12,  avg # of iterations =  2.9

     negative rho (up, down):  9.590E-04 0.000E+00

     total cpu time spent up to now is      115.3 secs

     total energy              =    -448.56663700 Ry
     estimated scf accuracy    <          7.3E-10 Ry

     iteration # 27     ecut=   124.00 Ry     beta= 0.70
     Davidson diagonalization with overlap
     ethr =  2.60E-12,  avg # of iterations =  1.2

     negative rho (up, down):  9.590E-04 0.000E+00

     total cpu time spent up to now is      116.1 secs

     End of self-consistent calculation

          k = 0.0000 0.0000 0.0000 (  3575 PWs)   bands (ev):

   -66.9043 -36.5417 -32.9710 -32.9710 -32.9710 -12.5939 -12.5939 -12.5939
    12.2158  15.6116  15.6116  18.8901  18.8901  18.8901  21.5646  21.5646
    23.8211  23.8211

          k = 0.0000 0.0000 0.0943 (  3607 PWs)   bands (ev):

   -66.9038 -36.5390 -32.9741 -32.9703 -32.9703 -12.6372 -12.5916 -12.5916
    12.4079  15.7056  15.7262  18.8761  18.8761  18.9339  21.4365  21.6143
    23.5253  23.5253

          k = 0.0000 0.0000 0.1887 (  3587 PWs)   bands (ev):

   -66.9025 -36.5319 -32.9823 -32.9686 -32.9686 -12.7522 -12.5855 -12.5855
    12.9612  15.9812  16.0297  18.8451  18.8451  19.0569  21.0678  21.7329
    22.8409  22.8409

          k = 0.0000 0.0000 0.2830 (  3571 PWs)   bands (ev):

   -66.9007 -36.5226 -32.9928 -32.9663 -32.9663 -12.9003 -12.5775 -12.5775
    13.8083  16.4006  16.4168  18.8218  18.8218  19.2322  20.5067  21.8079
    22.0859  22.0859

          k = 0.0000 0.0000 0.3773 (  3571 PWs)   bands (ev):

   -66.8992 -36.5142 -33.0023 -32.9642 -32.9642 -13.0340 -12.5701 -12.5701
    14.8287  16.6398  16.9603  18.8244  18.8244  19.4116  19.8449  21.4663
    21.4663  21.6507

          k = 0.0000 0.0000 0.4716 (  3551 PWs)   bands (ev):

   -66.8982 -36.5092 -33.0079 -32.9629 -32.9629 -13.1125 -12.5657 -12.5657
    15.8110  16.5049  17.4546  18.8419  18.8419  19.2790  19.5290  21.1136
    21.1136  21.3328

          k = 0.0000 0.0943 0.0943 (  3611 PWs)   bands (ev):

   -66.9033 -36.5361 -32.9764 -32.9709 -32.9697 -12.6399 -12.6289 -12.5892
    12.5952  15.8022  15.8339  18.7769  18.8532  19.0500  21.4190  21.5791
    23.1989  23.2320

          k = 0.0000 0.0943 0.1887 (  3600 PWs)   bands (ev):

   -66.9020 -36.5281 -32.9843 -32.9707 -32.9680 -12.7488 -12.6263 -12.5827
    13.1337  16.0584  16.1420  18.6826  18.7985  19.1906  21.1353  21.6829
    22.5692  22.5992

          k = 0.0000 0.0943 0.2830 (  3584 PWs)   bands (ev):

   -66.9003 -36.5177 -32.9950 -32.9700 -32.9657 -12.8949 -12.6168 -12.5741
    13.9530  16.4272  16.5480  18.6350  18.7392  19.2915  20.6571  21.6762
    21.9920  22.0146

          k = 0.0000 0.0943 0.3773 (  3574 PWs)   bands (ev):

   -66.8987 -36.5083 -33.0046 -32.9693 -32.9637 -13.0269 -12.6081 -12.5662
    14.9291  16.6802  17.0204  18.6495  18.6847  19.2947  20.1180  21.1935
    21.6274  21.8768

          k = 0.0000 0.0943 0.4716 (  3560 PWs)   bands (ev):

   -66.8978 -36.5027 -33.0102 -32.9690 -32.9624 -13.1044 -12.6028 -12.5616
    15.8544  16.5392  17.4602  18.6009  18.7035  19.2205  19.7421  20.8673
    21.4755  21.6849

          k = 0.0000 0.1887 0.1887 (  3591 PWs)   bands (ev):

   -66.9007 -36.5179 -32.9910 -32.9752 -32.9663 -12.7525 -12.7218 -12.5751
    13.6233  16.2376  16.4781  18.4754  18.6955  19.2875  21.2018  21.6315
    21.9751  22.2149

          k = 0.0000 0.1887 0.2830 (  3593 PWs)   bands (ev):

   -66.8990 -36.5046 -33.0011 -32.9796 -32.9642 -12.8808 -12.7210 -12.5651
    14.3460  16.4594  16.9363  18.3339  18.6055  19.1994  20.9867  21.3651
    21.8231  22.0076

          k = 0.0000 0.1887 0.3773 (  3579 PWs)   bands (ev):

   -66.8974 -36.4924 -33.0108 -32.9830 -32.9622 -13.0079 -12.7090 -12.5559
    15.1594  16.5885  17.3878  18.2956  18.5929  18.9469  20.6280  20.9842
    22.0075  22.0387

          k = 0.0000 0.1887 0.4716 (  3580 PWs)   bands (ev):

   -66.8965 -36.4851 -33.0166 -32.9850 -32.9610 -13.0827 -12.7016 -12.5504
    15.8568  16.4700  17.6938  18.3646  18.6591  18.6798  20.4332  20.7117
    22.0760  22.1597

          k = 0.0000 0.2830 0.2830 (  3589 PWs)   bands (ev):

   -66.8973 -36.4873 -33.0101 -32.9911 -32.9622 -12.8768 -12.8410 -12.5533
    14.8674  16.4572  17.4783  18.0884  18.5902  18.8828  21.1122  21.2554
    21.7219  22.2153

          k = 0.0000 0.2830 0.3773 (  3570 PWs)   bands (ev):

   -66.8958 -36.4714 -33.0193 -33.0007 -32.9603 -12.9832 -12.8389 -12.5423
    15.3505  16.3775  17.9615  18.0090  18.4973  18.8236  20.9134  21.2374
    21.9439  22.5449

          k = 0.0000 0.2830 0.4716 (  3572 PWs)   bands (ev):

   -66.8948 -36.4619 -33.0251 -33.0060 -32.9592 -13.0543 -12.8290 -12.5358
    15.6643  16.2502  17.9814  18.1831  18.3037  19.2669  20.6489  21.1741
    22.2411  22.8406

          k = 0.0000 0.3773 0.3773 (  3568 PWs)   bands (ev):

   -66.8942 -36.4520 -33.0276 -33.0164 -32.9585 -12.9688 -12.9482 -12.5298
    15.4099  16.1650  17.7428  18.0880  18.7191  19.3371  21.0937  21.6531
    21.7732  23.0229

          k = 0.0000 0.3773 0.4716 (  3568 PWs)   bands (ev):

   -66.8933 -36.4404 -33.0332 -33.0252 -32.9575 -13.0281 -12.9443 -12.5224
    15.4021  16.0361  17.6840  17.8042  19.1585  20.0713  20.8380  21.7368
    22.0543  23.3819

          k = 0.0000 0.4716 0.4716 (  3578 PWs)   bands (ev):

   -66.8924 -36.4276 -33.0381 -33.0365 -32.9565 -13.0137 -13.0109 -12.5144
    15.2352  15.9124  17.5424  17.5830  19.9271  20.5193  21.3545  21.5689
    22.0440  23.7027

          k = 0.0943 0.0943 0.0943 (  3605 PWs)   bands (ev):

   -66.9028 -36.5328 -32.9757 -32.9757 -32.9682 -12.6414 -12.6266 -12.6266
    12.7788  15.9184  15.9184  18.7513  18.7513  19.1453  21.4830  21.4830
    22.7105  23.5018

          k = 0.0943 0.0943 0.1887 (  3605 PWs)   bands (ev):

   -66.9015 -36.5241 -32.9851 -32.9740 -32.9678 -12.7452 -12.6261 -12.6204
    13.3049  16.1648  16.2239  18.6218  18.6842  19.2470  21.2065  21.6366
    22.1567  22.8159

          k = 0.0943 0.0943 0.2830 (  3575 PWs)   bands (ev):

   -66.8998 -36.5128 -32.9964 -32.9716 -32.9680 -12.8896 -12.6146 -12.6122
    14.1007  16.5482  16.5863  18.5588  18.5939  19.2418  20.7913  21.6005
    21.9443  22.0751

          k = 0.0943 0.0943 0.3773 (  3581 PWs)   bands (ev):

   -66.8982 -36.5024 -33.0065 -32.9694 -32.9684 -13.0202 -12.6047 -12.6039
    15.0392  16.7864  17.0136  18.4812  18.6055  19.1334  20.3328  21.3016
    21.4849  22.0880

          k = 0.0943 0.0943 0.4716 (  3578 PWs)   bands (ev):

   -66.8973 -36.4963 -33.0123 -32.9687 -32.9681 -13.0968 -12.6002 -12.5975
    15.9177  16.6083  17.4223  18.3373  18.7556  19.0214  20.0101  21.0063
    21.1597  22.2285

          k = 0.0943 0.1887 0.1887 (  3591 PWs)   bands (ev):

   -66.9002 -36.5135 -32.9902 -32.9785 -32.9683 -12.7475 -12.7194 -12.6149
    13.7899  16.3642  16.5345  18.4335  18.5620  19.2096  21.2866  21.5968
    21.8341  22.4833

          k = 0.0943 0.1887 0.2830 (  3579 PWs)   bands (ev):

   -66.8985 -36.4995 -33.0011 -32.9808 -32.9684 -12.8757 -12.7176 -12.6042
    14.5024  16.5986  16.9593  18.2856  18.4610  18.9931  21.0979  21.5109
    21.8570  22.0870

          k = 0.0943 0.1887 0.3773 (  3582 PWs)   bands (ev):

   -66.8970 -36.4867 -33.0117 -32.9830 -32.9676 -13.0020 -12.7054 -12.5941
    15.2962  16.7389  17.3294  18.2086  18.4711  18.7717  20.8063  21.1264
    21.7135  22.4228

          k = 0.0943 0.1887 0.4716 (  3567 PWs)   bands (ev):

   -66.8960 -36.4791 -33.0180 -32.9845 -32.9669 -13.0763 -12.6980 -12.5881
    15.9702  16.5989  17.5626  18.1518  18.5718  18.7468  20.6075  20.8024
    21.4886  22.8981

          k = 0.0943 0.2830 0.2830 (  3565 PWs)   bands (ev):

   -66.8968 -36.4821 -33.0092 -32.9923 -32.9673 -12.8708 -12.8386 -12.5920
    15.0330  16.6026  17.4877  18.0471  18.4247  18.6380  21.2504  21.4322
    21.7035  22.3871

          k = 0.0943 0.2830 0.3773 (  3575 PWs)   bands (ev):

   -66.8953 -36.4660 -33.0190 -33.0009 -32.9659 -12.9784 -12.8357 -12.5808
    15.5123  16.5236  17.8852  17.9599  18.3763  18.6527  21.0108  21.3404
    21.7965  22.8808

          k = 0.0943 0.2830 0.4716 (  3574 PWs)   bands (ev):

   -66.8944 -36.4565 -33.0256 -33.0054 -32.9650 -13.0495 -12.8260 -12.5740
    15.8085  16.3946  17.8846  17.9676  18.3773  19.1452  20.6964  21.2940
    21.7337  23.4417

          k = 0.0943 0.3773 0.3773 (  3566 PWs)   bands (ev):

   -66.8938 -36.4469 -33.0268 -33.0165 -32.9642 -12.9644 -12.9458 -12.5684
    15.5717  16.3110  17.7099  17.9874  18.6735  19.1337  21.0324  21.6322
    21.7668  23.4038

          k = 0.0943 0.3773 0.4716 (  3564 PWs)   bands (ev):

   -66.8929 -36.4354 -33.0327 -33.0245 -32.9632 -13.0248 -12.9417 -12.5610
    15.5536  16.1846  17.6500  17.7487  19.0821  19.8693  20.7718  21.6029
    21.8797  23.6535

          k = 0.0943 0.4716 0.4716 (  3573 PWs)   bands (ev):

   -66.8919 -36.4229 -33.0372 -33.0357 -32.9622 -13.0112 -13.0086 -12.5533
    15.3885  16.0622  17.5201  17.5558  19.8720  20.3933  21.0055  21.1522
    22.1291  23.9078

          k = 0.1887 0.1887 0.1887 (  3596 PWs)   bands (ev):

   -66.8989 -36.5016 -32.9883 -32.9883 -32.9724 -12.7419 -12.7130 -12.7130
    14.2582  16.6947  16.6947  18.3227  18.3227  18.9072  21.4944  21.4944
    21.9121  22.7687

          k = 0.1887 0.1887 0.2830 (  3593 PWs)   bands (ev):

   -66.8972 -36.4859 -33.0019 -32.9858 -32.9771 -12.8623 -12.7115 -12.7045
    14.9304  16.9302  17.0581  18.1692  18.1766  18.5359  21.3381  21.6155
    22.0570  22.2782

          k = 0.1887 0.1887 0.3773 (  3577 PWs)   bands (ev):

   -66.8957 -36.4715 -33.0144 -32.9834 -32.9812 -12.9862 -12.6968 -12.6947
    15.6394  17.1086  17.1901  18.0276  18.2325  18.4502  21.1710  21.3478
    21.5048  22.9430

          k = 0.1887 0.1887 0.4716 (  3547 PWs)   bands (ev):

   -66.8948 -36.4630 -33.0217 -32.9837 -32.9820 -13.0591 -12.6922 -12.6845
    16.1958  16.8214  17.3912  17.9081  18.3847  18.7043  20.8933  21.0672
    21.1979  23.3417

          k = 0.1887 0.2830 0.2830 (  3568 PWs)   bands (ev):

   -66.8956 -36.4681 -33.0071 -32.9957 -32.9806 -12.8548 -12.8321 -12.6951
    15.4933  16.9974  17.5064  17.9438  18.0517  18.1484  21.3958  21.6200
    21.9232  22.8489

          k = 0.1887 0.2830 0.3773 (  3583 PWs)   bands (ev):

   -66.8940 -36.4516 -33.0186 -33.0012 -32.9810 -12.9656 -12.8267 -12.6829
    15.9605  16.9034  17.6507  17.8288  18.1624  18.2861  21.1417  21.4314
    21.7956  23.1565

          k = 0.1887 0.2830 0.4716 (  3571 PWs)   bands (ev):

   -66.8931 -36.4417 -33.0268 -33.0037 -32.9807 -13.0366 -12.8178 -12.6755
    16.1947  16.7422  17.5935  17.7835  18.2931  18.8597  20.7590  21.2319
    21.6843  23.4227

          k = 0.1887 0.3773 0.3773 (  3567 PWs)   bands (ev):

   -66.8925 -36.4331 -33.0244 -33.0169 -32.9796 -12.9525 -12.9396 -12.6710
    16.0320  16.6888  17.6296  17.7765  18.5293  18.6229  20.9916  21.2917
    22.1067  23.3438

          k = 0.1887 0.3773 0.4716 (  3566 PWs)   bands (ev):

   -66.8916 -36.4221 -33.0316 -33.0226 -32.9787 -13.0159 -12.9347 -12.6638
    15.9821  16.5686  17.5690  17.6354  18.8206  19.3456  20.6945  21.0979
    22.1982  23.6308

          k = 0.1887 0.4716 0.4716 (  3568 PWs)   bands (ev):

   -66.8907 -36.4103 -33.0347 -33.0337 -32.9775 -13.0043 -13.0026 -12.6569
    15.8269  16.4595  17.4697  17.4975  19.5917  19.7661  20.5820  20.7650
    22.4269  23.9672

          k = 0.2830 0.2830 0.2830 (  3587 PWs)   bands (ev):

   -66.8939 -36.4496 -33.0043 -33.0043 -32.9942 -12.8382 -12.8237 -12.8237
    16.1085  17.5103  17.5103  17.5933  17.8281  17.8281  21.4194  21.4194
    22.4676  22.4676

          k = 0.2830 0.2830 0.3773 (  3570 PWs)   bands (ev):

   -66.8924 -36.4325 -33.0189 -33.0017 -32.9998 -12.9492 -12.8159 -12.8136
    16.5257  17.1938  17.4845  17.7462  17.8647  18.1130  21.1450  21.1710
    22.2859  23.0514

          k = 0.2830 0.2830 0.4716 (  3571 PWs)   bands (ev):

   -66.8915 -36.4224 -33.0285 -33.0023 -33.0002 -13.0197 -12.8112 -12.8022
    16.5852  16.9884  17.4548  17.7078  18.1364  18.6548  20.6942  21.0194
    22.2219  23.4582

          k = 0.2830 0.3773 0.3773 (  3568 PWs)   bands (ev):

   -66.8909 -36.4150 -33.0214 -33.0174 -32.9997 -12.9369 -12.9314 -12.8034
    16.6925  17.0810  17.5466  17.7007  18.0414  18.2876  20.9369  20.9559
    22.6450  23.2826

          k = 0.2830 0.3773 0.4716 (  3580 PWs)   bands (ev):

   -66.8900 -36.4045 -33.0302 -33.0201 -32.9989 -13.0042 -12.9254 -12.7965
    16.5825  16.9898  17.5015  17.6125  18.3913  18.7846  20.5707  20.8406
    22.7192  23.6690

          k = 0.2830 0.4716 0.4716 (  3567 PWs)   bands (ev):

   -66.8891 -36.3938 -33.0315 -33.0310 -32.9976 -12.9954 -12.9946 -12.7906
    16.4764  16.9544  17.4333  17.4763  18.9900  19.0005  20.3636  20.6666
    22.9329  24.0103

          k = 0.3773 0.3773 0.3773 (  3575 PWs)   bands (ev):

   -66.8894 -36.3982 -33.0186 -33.0186 -33.0175 -12.9238 -12.9238 -12.9220
    17.0011  17.5127  17.5127  17.6328  17.9980  17.9980  20.7429  20.7429
    23.2886  23.2886

          k = 0.3773 0.3773 0.4716 (  3577 PWs)   bands (ev):

   -66.8885 -36.3882 -33.0291 -33.0181 -33.0169 -12.9936 -12.9193 -12.9140
    17.0047  17.2434  17.5669  17.7437  18.0663  18.4105  20.4516  20.6498
    23.3035  23.7757

          k = 0.3773 0.4716 0.4716 (  3550 PWs)   bands (ev):

   -66.8876 -36.3785 -33.0286 -33.0285 -33.0160 -12.9873 -12.9872 -12.9115
    17.1309  17.3563  17.4637  17.6258  18.3515  18.3931  20.3109  20.5007
    23.5670  24.0454

          k = 0.4716 0.4716 0.4716 (  3560 PWs)   bands (ev):

   -66.8867 -36.3694 -33.0271 -33.0268 -33.0268 -12.9830 -12.9830 -12.9819
    17.4172  17.6064  17.6064  17.9293  17.9293  18.0027  20.2987  20.2987
    24.0655  24.0655

     the Fermi energy is    20.0425 ev

!    total energy              =    -448.56663700 Ry
     estimated scf accuracy    <          5.9E-11 Ry
     smearing contrib. (-TS)   =      -0.00001545 Ry
     internal energy E=F+TS    =    -448.56662154 Ry

     The total energy is F=E-TS. E is the sum of the following terms:
     one-electron contribution =    -136.39152574 Ry
     hartree contribution      =      86.66901540 Ry
     xc contribution           =     -53.09993271 Ry
     ewald contribution        =    -269.58811424 Ry
     one-center paw contrib.   =     -76.15606425 Ry

     convergence has been achieved in  27 iterations

     negative rho (up, down):  9.590E-04 0.000E+00

     Forces acting on atoms (cartesian axes, Ry/au):

     atom    1 type  1   force =     0.00000000    0.00000000    0.00000000
     atom    2 type  2   force =     0.00000000    0.00000000    0.00000000

     Total force =     0.000000     Total SCF correction =     0.000000


     Computing stress (Cartesian axis) and pressure


     negative rho (up, down):  9.590E-04 0.000E+00
          total   stress  (Ry/bohr**3)                   (kbar)     P=      315.49
   0.00214464   0.00000000   0.00000000          315.49        0.00        0.00
   0.00000000   0.00214464   0.00000000            0.00      315.49        0.00
   0.00000000   0.00000000   0.00214464            0.00        0.00      315.49


     Writing all to output data dir ./TiFe.save/ :
     XML data file, charge density, pseudopotentials, collected wavefunctions

     init_run     :      2.20s CPU      2.28s WALL (       2 calls)
     electrons    :     99.14s CPU    104.23s WALL (       6 calls)
     update_pot   :      0.32s CPU      0.34s WALL (       4 calls)
     forces       :      1.34s CPU      1.45s WALL (       6 calls)
     stress       :      7.97s CPU      8.30s WALL (       6 calls)

     Called by init_run:
     wfcinit      :      0.56s CPU      0.58s WALL (       2 calls)
     potinit      :      0.44s CPU      0.45s WALL (       2 calls)
     hinit0       :      0.89s CPU      0.90s WALL (       2 calls)

     Called by electrons:
     c_bands      :     60.38s CPU     61.86s WALL (      99 calls)
     sum_band     :     21.14s CPU     23.03s WALL (      99 calls)
     v_of_rho     :      2.05s CPU      2.19s WALL (     103 calls)
     newd         :     11.05s CPU     12.55s WALL (     103 calls)
     PAW_pot      :      5.34s CPU      5.41s WALL (     107 calls)
     mix_rho      :      0.22s CPU      0.24s WALL (      99 calls)

     Called by c_bands:
     init_us_2    :      1.67s CPU      1.72s WALL (   12096 calls)
     cegterg      :     57.56s CPU     58.94s WALL (    5544 calls)

     Called by *egterg:
     cdiaghg      :      7.04s CPU      7.20s WALL (   22294 calls)
     h_psi        :     43.72s CPU     44.82s WALL (   22742 calls)
     s_psi        :      1.14s CPU      1.17s WALL (   22742 calls)
     g_psi        :      0.27s CPU      0.28s WALL (   17086 calls)

     Called by h_psi:
     h_psi:calbec :      1.63s CPU      1.67s WALL (   22742 calls)
     vloc_psi     :     40.71s CPU     41.74s WALL (   22742 calls)
     add_vuspsi   :      1.17s CPU      1.20s WALL (   22742 calls)

     General routines
     calbec       :      2.65s CPU      2.72s WALL (   34222 calls)
     fft          :      1.81s CPU      2.02s WALL (    1483 calls)
     ffts         :      0.30s CPU      0.30s WALL (     202 calls)
     fftw         :     36.66s CPU     37.54s WALL (  638644 calls)
     interpolate  :      0.37s CPU      0.40s WALL (     103 calls)

     Parallel routines

     PWSCF        :    111.98s CPU    117.87s WALL


   This run was terminated on:  15:46:47  25Oct2025            

=------------------------------------------------------------------------------=
   JOB DONE.
=------------------------------------------------------------------------------=
