
     Program PWSCF v.7.4 starts on 25Oct2025 at 15:37: 5 

     This program is part of the open-source Quantum ESPRESSO suite
     for quantum simulation of materials; please cite
         "P. Giannozzi et al., J. Phys.:Condens. Matter 21 395502 (2009);
         "P. Giannozzi et al., J. Phys.:Condens. Matter 29 465901 (2017);
         "P. Giannozzi et al., J. Chem. Phys. 152 154105 (2020);
          URL http://www.quantum-espresso.org", 
     in publications or presentations arising from this work. More details at
     http://www.quantum-espresso.org/quote

     Parallel version (MPI & OpenMP), running on       8 processor cores
     Number of MPI processes:                 8
     Threads/MPI process:                     1

     MPI processes distributed on     1 nodes
     223850 MiB available memory on the printing compute node when the environment starts

     Reading input from TiFe_relaxed6.in

     Current dimensions of program PWSCF are:
     Max number of different atomic species (ntypx) = 10
     Max number of k-points (npk) =  40000
     Max angular momentum in pseudopotentials (lmaxx) =  4
     file Fe.pbe-spn-kjpaw_psl.0.2.1.UPF: wavefunction(s)  3D renormalized

     IMPORTANT: XC functional enforced from input :
     Exchange-correlation= PBE
                           (   1   4   3   4   0   0   0)
     Any further DFT definition will be discarded
     Please, verify this is what you really want

     Message from routine setup:
     using ibrav=0 with symmetry is DISCOURAGED, use correct ibrav instead

     R & G space division:  proc/nbgrp/npool/nimage =       8
     Subspace diagonalization in iterative solution of the eigenvalue problem:
     a serial algorithm will be used


     Parallelization info
     --------------------
     sticks:   dense  smooth     PW     G-vecs:    dense   smooth      PW
     Min         532     151     43                26154     3989     617
     Max         533     152     44                26155     3993     620
     Sum        4257    1209    349               209233    31919    4945

     Using Slab Decomposition



     bravais-lattice index     =            0
     lattice parameter (alat)  =       5.5533  a.u.
     unit-cell volume          =     171.2590 (a.u.)^3
     number of atoms/cell      =            2
     number of atomic types    =            2
     number of electrons       =        28.00
     number of Kohn-Sham states=           18
     kinetic-energy cutoff     =     124.0000  Ry
     charge density cutoff     =    1736.0000  Ry
     scf convergence threshold =      1.0E-08
     mixing beta               =       0.7000
     number of iterations used =            8  plain     mixing
     energy convergence thresh.=      1.0E-04
     force convergence thresh. =      1.0E-03
     press convergence thresh. =      5.0E-01
     Exchange-correlation= PBE
                           (   1   4   3   4   0   0   0)
     nstep                     =           50


     celldm(1)=   5.553300  celldm(2)=   0.000000  celldm(3)=   0.000000
     celldm(4)=   0.000000  celldm(5)=   0.000000  celldm(6)=   0.000000

     crystal axes: (cart. coord. in units of alat)
               a(1) = (   1.000000   0.000000   0.000000 )  
               a(2) = (   0.000000   1.000000   0.000000 )  
               a(3) = (   0.000000   0.000000   1.000000 )  

     reciprocal axes: (cart. coord. in units 2 pi/alat)
               b(1) = (  1.000000  0.000000  0.000000 )  
               b(2) = (  0.000000  1.000000  0.000000 )  
               b(3) = (  0.000000  0.000000  1.000000 )  


     PseudoPot. # 1 for Fe read from file:
     ../../pseudos/Fe.pbe-spn-kjpaw_psl.0.2.1.UPF
     MD5 check sum: e86618425769142926afa95317d90200
     Pseudo is Projector augmented-wave + core cor, Zval = 16.0
     Generated using "atomic" code by A. Dal Corso  v.5.0.99 svn rev. 10869
     Shape of augmentation charge: PSQ
     Using radial grid of 1191 points,  6 beta functions with: 
                l(1) =   0
                l(2) =   0
                l(3) =   1
                l(4) =   1
                l(5) =   2
                l(6) =   2
     Q(r) pseudized with 0 coefficients 


     PseudoPot. # 2 for Ti read from file:
     ../../pseudos/ti_pbe_v1.4.uspp.F.UPF
     MD5 check sum: 88a00a6731bd790ddea75d31a80cb452
     Pseudo is Ultrasoft + core correction, Zval = 12.0
     Generated by new atomic code, or converted to UPF format
     Using radial grid of  851 points,  6 beta functions with: 
                l(1) =   0
                l(2) =   0
                l(3) =   1
                l(4) =   1
                l(5) =   2
                l(6) =   2
     Q(r) pseudized with  6 coefficients,  rinner =    1.000   1.000   1.000
                                                       1.000   1.000

     atomic species   valence    mass     pseudopotential
     Fe               16.00    55.84500     Fe( 1.00)
     Ti               12.00    47.86700     Ti( 1.00)

     48 Sym. Ops., with inversion, found



   Cartesian axes

     site n.     atom                  positions (alat units)
         1        Fe     tau(   1) = (   0.5000000   0.5000000   0.5000000  )
         2        Ti     tau(   2) = (   0.0000000   0.0000000   0.0000000  )

     number of k points=    56  Marzari-Vanderbilt smearing, width (Ry)=  0.0050
                       cart. coord. in units 2pi/alat
        k(    1) = (   0.0000000   0.0000000   0.0000000), wk =   0.0015026
        k(    2) = (   0.0000000   0.0000000   0.0909091), wk =   0.0090158
        k(    3) = (   0.0000000   0.0000000   0.1818182), wk =   0.0090158
        k(    4) = (   0.0000000   0.0000000   0.2727273), wk =   0.0090158
        k(    5) = (   0.0000000   0.0000000   0.3636364), wk =   0.0090158
        k(    6) = (   0.0000000   0.0000000   0.4545455), wk =   0.0090158
        k(    7) = (   0.0000000   0.0909091   0.0909091), wk =   0.0180316
        k(    8) = (   0.0000000   0.0909091   0.1818182), wk =   0.0360631
        k(    9) = (   0.0000000   0.0909091   0.2727273), wk =   0.0360631
        k(   10) = (   0.0000000   0.0909091   0.3636364), wk =   0.0360631
        k(   11) = (   0.0000000   0.0909091   0.4545455), wk =   0.0360631
        k(   12) = (   0.0000000   0.1818182   0.1818182), wk =   0.0180316
        k(   13) = (   0.0000000   0.1818182   0.2727273), wk =   0.0360631
        k(   14) = (   0.0000000   0.1818182   0.3636364), wk =   0.0360631
        k(   15) = (   0.0000000   0.1818182   0.4545455), wk =   0.0360631
        k(   16) = (   0.0000000   0.2727273   0.2727273), wk =   0.0180316
        k(   17) = (   0.0000000   0.2727273   0.3636364), wk =   0.0360631
        k(   18) = (   0.0000000   0.2727273   0.4545455), wk =   0.0360631
        k(   19) = (   0.0000000   0.3636364   0.3636364), wk =   0.0180316
        k(   20) = (   0.0000000   0.3636364   0.4545455), wk =   0.0360631
        k(   21) = (   0.0000000   0.4545455   0.4545455), wk =   0.0180316
        k(   22) = (   0.0909091   0.0909091   0.0909091), wk =   0.0120210
        k(   23) = (   0.0909091   0.0909091   0.1818182), wk =   0.0360631
        k(   24) = (   0.0909091   0.0909091   0.2727273), wk =   0.0360631
        k(   25) = (   0.0909091   0.0909091   0.3636364), wk =   0.0360631
        k(   26) = (   0.0909091   0.0909091   0.4545455), wk =   0.0360631
        k(   27) = (   0.0909091   0.1818182   0.1818182), wk =   0.0360631
        k(   28) = (   0.0909091   0.1818182   0.2727273), wk =   0.0721262
        k(   29) = (   0.0909091   0.1818182   0.3636364), wk =   0.0721262
        k(   30) = (   0.0909091   0.1818182   0.4545455), wk =   0.0721262
        k(   31) = (   0.0909091   0.2727273   0.2727273), wk =   0.0360631
        k(   32) = (   0.0909091   0.2727273   0.3636364), wk =   0.0721262
        k(   33) = (   0.0909091   0.2727273   0.4545455), wk =   0.0721262
        k(   34) = (   0.0909091   0.3636364   0.3636364), wk =   0.0360631
        k(   35) = (   0.0909091   0.3636364   0.4545455), wk =   0.0721262
        k(   36) = (   0.0909091   0.4545455   0.4545455), wk =   0.0360631
        k(   37) = (   0.1818182   0.1818182   0.1818182), wk =   0.0120210
        k(   38) = (   0.1818182   0.1818182   0.2727273), wk =   0.0360631
        k(   39) = (   0.1818182   0.1818182   0.3636364), wk =   0.0360631
        k(   40) = (   0.1818182   0.1818182   0.4545455), wk =   0.0360631
        k(   41) = (   0.1818182   0.2727273   0.2727273), wk =   0.0360631
        k(   42) = (   0.1818182   0.2727273   0.3636364), wk =   0.0721262
        k(   43) = (   0.1818182   0.2727273   0.4545455), wk =   0.0721262
        k(   44) = (   0.1818182   0.3636364   0.3636364), wk =   0.0360631
        k(   45) = (   0.1818182   0.3636364   0.4545455), wk =   0.0721262
        k(   46) = (   0.1818182   0.4545455   0.4545455), wk =   0.0360631
        k(   47) = (   0.2727273   0.2727273   0.2727273), wk =   0.0120210
        k(   48) = (   0.2727273   0.2727273   0.3636364), wk =   0.0360631
        k(   49) = (   0.2727273   0.2727273   0.4545455), wk =   0.0360631
        k(   50) = (   0.2727273   0.3636364   0.3636364), wk =   0.0360631
        k(   51) = (   0.2727273   0.3636364   0.4545455), wk =   0.0721262
        k(   52) = (   0.2727273   0.4545455   0.4545455), wk =   0.0360631
        k(   53) = (   0.3636364   0.3636364   0.3636364), wk =   0.0120210
        k(   54) = (   0.3636364   0.3636364   0.4545455), wk =   0.0360631
        k(   55) = (   0.3636364   0.4545455   0.4545455), wk =   0.0360631
        k(   56) = (   0.4545455   0.4545455   0.4545455), wk =   0.0120210

     Dense  grid:   209233 G-vectors     FFT dimensions: (  75,  75,  75)

     Smooth grid:    31919 G-vectors     FFT dimensions: (  40,  40,  40)

     Estimated max dynamical RAM per process >     117.03 MB

     Estimated total dynamical RAM >     936.25 MB

     Check: negative core charge=   -0.000002

     Initial potential from superposition of free atoms

     starting charge      26.9995, renormalised to      28.0000

     negative rho (up, down):  1.347E-03 0.000E+00
     Starting wfcs are   23 randomized atomic wfcs
     Checking if some PAW data can be deallocated... 

     total cpu time spent up to now is        1.4 secs

     per-process dynamical memory:   142.6 Mb

     Self-consistent Calculation

     iteration #  1     ecut=   124.00 Ry     beta= 0.70
     Davidson diagonalization with overlap
     ethr =  1.00E-02,  avg # of iterations =  2.1

     negative rho (up, down):  7.937E-05 0.000E+00

     total cpu time spent up to now is        2.4 secs

     total energy              =    -434.89047275 Ry
     estimated scf accuracy    <      17.46535633 Ry

     iteration #  2     ecut=   124.00 Ry     beta= 0.70
     Davidson diagonalization with overlap
     ethr =  1.00E-02,  avg # of iterations =  6.0

     negative rho (up, down):  2.353E-05 0.000E+00

     total cpu time spent up to now is        4.0 secs

     total energy              =    -448.51249463 Ry
     estimated scf accuracy    <      66.10195194 Ry

     iteration #  3     ecut=   124.00 Ry     beta= 0.70
     Davidson diagonalization with overlap
     ethr =  1.00E-02,  avg # of iterations =  3.1

     negative rho (up, down):  2.377E-04 0.000E+00

     total cpu time spent up to now is        5.2 secs

     total energy              =    -448.59203340 Ry
     estimated scf accuracy    <      16.77106202 Ry

     iteration #  4     ecut=   124.00 Ry     beta= 0.70
     Davidson diagonalization with overlap
     ethr =  1.00E-02,  avg # of iterations =  2.2

     negative rho (up, down):  2.766E-04 0.000E+00

     total cpu time spent up to now is        6.2 secs

     total energy              =    -449.11252552 Ry
     estimated scf accuracy    <       4.68111793 Ry

     iteration #  5     ecut=   124.00 Ry     beta= 0.70
     Davidson diagonalization with overlap
     ethr =  1.00E-02,  avg # of iterations =  1.0

     negative rho (up, down):  3.285E-04 0.000E+00

     total cpu time spent up to now is        7.1 secs

     total energy              =    -449.11683000 Ry
     estimated scf accuracy    <       4.27451567 Ry

     iteration #  6     ecut=   124.00 Ry     beta= 0.70
     Davidson diagonalization with overlap
     ethr =  1.00E-02,  avg # of iterations =  1.0

     negative rho (up, down):  1.118E-03 0.000E+00

     total cpu time spent up to now is        7.9 secs

     total energy              =    -447.89068457 Ry
     estimated scf accuracy    <       4.50163493 Ry

     iteration #  7     ecut=   124.00 Ry     beta= 0.70
     Davidson diagonalization with overlap
     ethr =  1.00E-02,  avg # of iterations =  3.4

     negative rho (up, down):  1.015E-03 0.000E+00

     total cpu time spent up to now is        9.0 secs

     total energy              =    -448.58840447 Ry
     estimated scf accuracy    <       3.89651472 Ry

     iteration #  8     ecut=   124.00 Ry     beta= 0.70
     Davidson diagonalization with overlap
     ethr =  1.00E-02,  avg # of iterations =  1.0

     negative rho (up, down):  7.976E-04 0.000E+00

     total cpu time spent up to now is        9.8 secs

     total energy              =    -448.43997417 Ry
     estimated scf accuracy    <       1.27715295 Ry

     iteration #  9     ecut=   124.00 Ry     beta= 0.70
     Davidson diagonalization with overlap
     ethr =  4.56E-03,  avg # of iterations =  1.9

     negative rho (up, down):  7.977E-04 0.000E+00

     total cpu time spent up to now is       10.8 secs

     total energy              =    -448.60539805 Ry
     estimated scf accuracy    <       0.26863249 Ry

     iteration # 10     ecut=   124.00 Ry     beta= 0.70
     Davidson diagonalization with overlap
     ethr =  9.59E-04,  avg # of iterations =  1.3

     negative rho (up, down):  8.075E-04 0.000E+00

     total cpu time spent up to now is       11.7 secs

     total energy              =    -448.61289738 Ry
     estimated scf accuracy    <       0.28159432 Ry

     iteration # 11     ecut=   124.00 Ry     beta= 0.70
     Davidson diagonalization with overlap
     ethr =  9.59E-04,  avg # of iterations =  1.0

     negative rho (up, down):  7.617E-04 0.000E+00

     total cpu time spent up to now is       12.5 secs

     total energy              =    -448.67957078 Ry
     estimated scf accuracy    <       0.34549008 Ry

     iteration # 12     ecut=   124.00 Ry     beta= 0.70
     Davidson diagonalization with overlap
     ethr =  9.59E-04,  avg # of iterations =  1.8

     negative rho (up, down):  7.932E-04 0.000E+00

     total cpu time spent up to now is       13.5 secs

     total energy              =    -448.62277485 Ry
     estimated scf accuracy    <       1.28404054 Ry

     iteration # 13     ecut=   124.00 Ry     beta= 0.70
     Davidson diagonalization with overlap
     ethr =  9.59E-04,  avg # of iterations =  1.2

     negative rho (up, down):  9.274E-04 0.000E+00

     total cpu time spent up to now is       14.3 secs

     total energy              =    -448.63537755 Ry
     estimated scf accuracy    <       0.58154385 Ry

     iteration # 14     ecut=   124.00 Ry     beta= 0.70
     Davidson diagonalization with overlap
     ethr =  9.59E-04,  avg # of iterations =  1.0

     negative rho (up, down):  1.025E-03 0.000E+00

     total cpu time spent up to now is       15.2 secs

     total energy              =    -448.61055071 Ry
     estimated scf accuracy    <       0.50368914 Ry

     iteration # 15     ecut=   124.00 Ry     beta= 0.70
     Davidson diagonalization with overlap
     ethr =  9.59E-04,  avg # of iterations =  1.0

     negative rho (up, down):  1.032E-03 0.000E+00

     total cpu time spent up to now is       16.1 secs

     total energy              =    -448.61143942 Ry
     estimated scf accuracy    <       0.31963620 Ry

     iteration # 16     ecut=   124.00 Ry     beta= 0.70
     Davidson diagonalization with overlap
     ethr =  9.59E-04,  avg # of iterations =  1.0

     negative rho (up, down):  1.077E-03 0.000E+00

     total cpu time spent up to now is       17.0 secs

     total energy              =    -448.59313187 Ry
     estimated scf accuracy    <       0.28283031 Ry

     iteration # 17     ecut=   124.00 Ry     beta= 0.70
     Davidson diagonalization with overlap
     ethr =  9.59E-04,  avg # of iterations =  1.0

     negative rho (up, down):  1.074E-03 0.000E+00

     total cpu time spent up to now is       17.9 secs

     total energy              =    -448.60188466 Ry
     estimated scf accuracy    <       0.07727334 Ry

     iteration # 18     ecut=   124.00 Ry     beta= 0.70
     Davidson diagonalization with overlap
     ethr =  2.76E-04,  avg # of iterations =  1.6

     negative rho (up, down):  9.925E-04 0.000E+00

     total cpu time spent up to now is       18.8 secs

     total energy              =    -448.58361171 Ry
     estimated scf accuracy    <       0.14906513 Ry

     iteration # 19     ecut=   124.00 Ry     beta= 0.70
     Davidson diagonalization with overlap
     ethr =  2.76E-04,  avg # of iterations =  1.1

     negative rho (up, down):  9.436E-04 0.000E+00

     total cpu time spent up to now is       19.7 secs

     total energy              =    -448.59412595 Ry
     estimated scf accuracy    <       0.04848598 Ry

     iteration # 20     ecut=   124.00 Ry     beta= 0.70
     Davidson diagonalization with overlap
     ethr =  1.73E-04,  avg # of iterations =  1.1

     negative rho (up, down):  1.023E-03 0.000E+00

     total cpu time spent up to now is       20.6 secs

     total energy              =    -448.57755582 Ry
     estimated scf accuracy    <       0.17402915 Ry

     iteration # 21     ecut=   124.00 Ry     beta= 0.70
     Davidson diagonalization with overlap
     ethr =  1.73E-04,  avg # of iterations =  2.1

     negative rho (up, down):  1.012E-03 0.000E+00

     total cpu time spent up to now is       21.5 secs

     total energy              =    -448.58650556 Ry
     estimated scf accuracy    <       0.00384582 Ry

     iteration # 22     ecut=   124.00 Ry     beta= 0.70
     Davidson diagonalization with overlap
     ethr =  1.37E-05,  avg # of iterations =  4.6

     negative rho (up, down):  1.004E-03 0.000E+00

     total cpu time spent up to now is       22.5 secs

     total energy              =    -448.58691254 Ry
     estimated scf accuracy    <       0.00198474 Ry

     iteration # 23     ecut=   124.00 Ry     beta= 0.70
     Davidson diagonalization with overlap
     ethr =  7.09E-06,  avg # of iterations =  1.5

     negative rho (up, down):  1.006E-03 0.000E+00

     total cpu time spent up to now is       23.4 secs

     total energy              =    -448.58700272 Ry
     estimated scf accuracy    <       0.00176934 Ry

     iteration # 24     ecut=   124.00 Ry     beta= 0.70
     Davidson diagonalization with overlap
     ethr =  6.32E-06,  avg # of iterations =  1.0

     negative rho (up, down):  9.532E-04 0.000E+00

     total cpu time spent up to now is       24.3 secs

     total energy              =    -448.58622429 Ry
     estimated scf accuracy    <       0.00189335 Ry

     iteration # 25     ecut=   124.00 Ry     beta= 0.70
     Davidson diagonalization with overlap
     ethr =  6.32E-06,  avg # of iterations =  2.5

     negative rho (up, down):  9.519E-04 0.000E+00

     total cpu time spent up to now is       25.4 secs

     total energy              =    -448.58664002 Ry
     estimated scf accuracy    <       0.00120783 Ry

     iteration # 26     ecut=   124.00 Ry     beta= 0.70
     Davidson diagonalization with overlap
     ethr =  4.31E-06,  avg # of iterations =  1.0

     negative rho (up, down):  9.350E-04 0.000E+00

     total cpu time spent up to now is       26.2 secs

     total energy              =    -448.58685540 Ry
     estimated scf accuracy    <       0.00115497 Ry

     iteration # 27     ecut=   124.00 Ry     beta= 0.70
     Davidson diagonalization with overlap
     ethr =  4.12E-06,  avg # of iterations =  2.0

     negative rho (up, down):  9.665E-04 0.000E+00

     total cpu time spent up to now is       27.2 secs

     total energy              =    -448.58628945 Ry
     estimated scf accuracy    <       0.00358734 Ry

     iteration # 28     ecut=   124.00 Ry     beta= 0.70
     Davidson diagonalization with overlap
     ethr =  4.12E-06,  avg # of iterations =  2.0

     negative rho (up, down):  9.722E-04 0.000E+00

     total cpu time spent up to now is       28.1 secs

     total energy              =    -448.58652078 Ry
     estimated scf accuracy    <       0.00004728 Ry

     iteration # 29     ecut=   124.00 Ry     beta= 0.70
     Davidson diagonalization with overlap
     ethr =  1.69E-07,  avg # of iterations =  4.7

     negative rho (up, down):  9.640E-04 0.000E+00

     total cpu time spent up to now is       29.3 secs

     total energy              =    -448.58653251 Ry
     estimated scf accuracy    <       0.00024121 Ry

     iteration # 30     ecut=   124.00 Ry     beta= 0.70
     Davidson diagonalization with overlap
     ethr =  1.69E-07,  avg # of iterations =  3.8

     negative rho (up, down):  9.643E-04 0.000E+00

     total cpu time spent up to now is       30.3 secs

     total energy              =    -448.58655217 Ry
     estimated scf accuracy    <       0.00000018 Ry

     iteration # 31     ecut=   124.00 Ry     beta= 0.70
     Davidson diagonalization with overlap
     ethr =  6.52E-10,  avg # of iterations =  5.9

     negative rho (up, down):  9.640E-04 0.000E+00

     total cpu time spent up to now is       31.7 secs

     total energy              =    -448.58655245 Ry
     estimated scf accuracy    <       0.00000124 Ry

     iteration # 32     ecut=   124.00 Ry     beta= 0.70
     Davidson diagonalization with overlap
     ethr =  6.52E-10,  avg # of iterations =  4.0

     negative rho (up, down):  9.638E-04 0.000E+00

     total cpu time spent up to now is       32.8 secs

     total energy              =    -448.58655251 Ry
     estimated scf accuracy    <       0.00000015 Ry

     iteration # 33     ecut=   124.00 Ry     beta= 0.70
     Davidson diagonalization with overlap
     ethr =  5.50E-10,  avg # of iterations =  2.0

     negative rho (up, down):  9.641E-04 0.000E+00

     total cpu time spent up to now is       33.7 secs

     total energy              =    -448.58655246 Ry
     estimated scf accuracy    <       0.00000035 Ry

     iteration # 34     ecut=   124.00 Ry     beta= 0.70
     Davidson diagonalization with overlap
     ethr =  5.50E-10,  avg # of iterations =  2.3

     negative rho (up, down):  9.642E-04 0.000E+00

     total cpu time spent up to now is       34.7 secs

     total energy              =    -448.58655249 Ry
     estimated scf accuracy    <       0.00000002 Ry

     iteration # 35     ecut=   124.00 Ry     beta= 0.70
     Davidson diagonalization with overlap
     ethr =  7.35E-11,  avg # of iterations =  3.8

     negative rho (up, down):  9.641E-04 0.000E+00

     total cpu time spent up to now is       35.7 secs

     total energy              =    -448.58655249 Ry
     estimated scf accuracy    <       0.00000003 Ry

     iteration # 36     ecut=   124.00 Ry     beta= 0.70
     Davidson diagonalization with overlap
     ethr =  7.35E-11,  avg # of iterations =  2.8

     negative rho (up, down):  9.642E-04 0.000E+00

     total cpu time spent up to now is       36.7 secs

     End of self-consistent calculation

          k = 0.0000 0.0000 0.0000 (  3911 PWs)   bands (ev):

   -69.2103 -39.1517 -35.2713 -35.2713 -35.2713 -15.2460 -15.2460 -15.2460
    10.1528  13.8639  13.8639  16.6568  16.6568  16.6568  18.9983  18.9983
    20.9366  20.9366

          k = 0.0000 0.0000 0.0909 (  3947 PWs)   bands (ev):

   -69.2100 -39.1496 -35.2739 -35.2710 -35.2710 -15.2752 -15.2442 -15.2442
    10.3257  13.9470  13.9536  16.6441  16.6441  16.6947  18.8927  19.0380
    20.6858  20.6858

          k = 0.0000 0.0000 0.1818 (  3964 PWs)   bands (ev):

   -69.2093 -39.1439 -35.2806 -35.2699 -35.2699 -15.3532 -15.2395 -15.2395
    10.8272  14.1866  14.1906  16.6148  16.6148  16.8008  18.5875  19.1279
    20.1022  20.1022

          k = 0.0000 0.0000 0.2727 (  3988 PWs)   bands (ev):

   -69.2083 -39.1364 -35.2894 -35.2686 -35.2686 -15.4540 -15.2334 -15.2334
    11.6057  14.4523  14.5738  16.5899  16.5899  16.9516  18.1202  19.1616
    19.4564  19.4564

          k = 0.0000 0.0000 0.3636 (  4008 PWs)   bands (ev):

   -69.2074 -39.1296 -35.2974 -35.2674 -35.2674 -15.5455 -15.2277 -15.2277
    12.5660  14.5652  15.0485  16.5850  16.5850  17.1052  17.5653  18.9275
    18.9275  18.9715

          k = 0.0000 0.0000 0.4545 (  3992 PWs)   bands (ev):

   -69.2069 -39.1255 -35.3021 -35.2666 -35.2666 -15.5993 -15.2243 -15.2243
    13.5347  14.3044  15.4744  16.5939  16.5939  17.0903  17.2053  18.6282
    18.6282  18.6588

          k = 0.0000 0.0909 0.0909 (  3966 PWs)   bands (ev):

   -69.2097 -39.1473 -35.2748 -35.2724 -35.2706 -15.2763 -15.2701 -15.2424
    10.4951  14.0265  14.0436  16.5617  16.6235  16.7909  18.8775  19.0087
    20.4104  20.4353

          k = 0.0000 0.0909 0.1818 (  3978 PWs)   bands (ev):

   -69.2090 -39.1413 -35.2811 -35.2724 -35.2696 -15.3507 -15.2674 -15.2375
    10.9856  14.2440  14.2906  16.4813  16.5732  16.9084  18.6426  19.0872
    19.8667  19.9001

          k = 0.0000 0.0909 0.2727 (  3995 PWs)   bands (ev):

   -69.2080 -39.1334 -35.2900 -35.2716 -35.2682 -15.4505 -15.2605 -15.2310
    11.7434  14.5128  14.6445  16.4377  16.5167  16.9935  18.2447  19.0577
    19.3653  19.4002

          k = 0.0000 0.0909 0.3636 (  3991 PWs)   bands (ev):

   -69.2071 -39.1261 -35.2982 -35.2709 -35.2670 -15.5410 -15.2540 -15.2251
    12.6707  14.6170  15.0808  16.4435  16.4656  16.9997  17.7899  18.6460
    19.0665  19.2133

          k = 0.0000 0.0909 0.4545 (  3999 PWs)   bands (ev):

   -69.2066 -39.1218 -35.3030 -35.2704 -35.2663 -15.5943 -15.2502 -15.2216
    13.5943  14.3519  15.4692  16.3968  16.4805  16.9451  17.4633  18.3527
    18.9324  19.0197

          k = 0.0000 0.1818 0.1818 (  3972 PWs)   bands (ev):

   -69.2083 -39.1343 -35.2840 -35.2772 -35.2686 -15.3518 -15.3342 -15.2320
    11.4401  14.3900  14.5687  16.3070  16.4778  16.9857  18.6949  19.0459
    19.3497  19.5759

          k = 0.0000 0.1818 0.2727 (  4003 PWs)   bands (ev):

   -69.2073 -39.1252 -35.2920 -35.2794 -35.2673 -15.4412 -15.3324 -15.2248
    12.1275  14.5565  14.9462  16.1858  16.3868  16.9101  18.5209  18.8014
    19.2048  19.3971

          k = 0.0000 0.1818 0.3636 (  3997 PWs)   bands (ev):

   -69.2064 -39.1168 -35.3004 -35.2802 -35.2661 -15.5290 -15.3241 -15.2182
    12.9354  14.5943  15.3322  16.1499  16.3572  16.7002  18.2182  18.4617
    19.3303  19.4171

          k = 0.0000 0.1818 0.4545 (  3990 PWs)   bands (ev):

   -69.2059 -39.1118 -35.3055 -35.2806 -35.2654 -15.5808 -15.3190 -15.2143
    13.6841  14.3630  15.6125  16.2009  16.3901  16.4819  18.0481  18.2166
    19.3519  19.5140

          k = 0.0000 0.2727 0.2727 (  4000 PWs)   bands (ev):

   -69.2063 -39.1144 -35.2962 -35.2880 -35.2661 -15.4376 -15.4171 -15.2167
    12.6688  14.5348  15.3963  15.9775  16.3399  16.6425  18.5789  18.7502
    19.1053  19.5704

          k = 0.0000 0.2727 0.3636 (  3993 PWs)   bands (ev):

   -69.2054 -39.1045 -35.3035 -35.2923 -35.2649 -15.5134 -15.4148 -15.2091
    13.2266  14.4166  15.8407  15.8678  16.3180  16.4951  18.3958  18.7292
    19.2749  19.8465

          k = 0.0000 0.2727 0.4545 (  3996 PWs)   bands (ev):

   -69.2049 -39.0986 -35.3088 -35.2939 -35.2643 -15.5632 -15.4082 -15.2047
    13.6460  14.2282  15.8808  16.0551  16.0845  16.8466  18.1510  18.6845
    19.4869  20.0942

          k = 0.0000 0.3636 0.3636 (  4002 PWs)   bands (ev):

   -69.2046 -39.0932 -35.3073 -35.3025 -35.2639 -15.5040 -15.4922 -15.2008
    13.4198  14.2078  15.6811  15.9708  16.4456  16.8939  18.5222  19.0881
    19.1103  20.2512

          k = 0.0000 0.3636 0.4545 (  3999 PWs)   bands (ev):

   -69.2041 -39.0865 -35.3119 -35.3062 -35.2632 -15.5469 -15.4893 -15.1958
    13.5039  14.0682  15.6294  15.7309  16.8140  17.5391  18.2827  19.1483
    19.3230  20.5545

          k = 0.0000 0.4545 0.4545 (  3998 PWs)   bands (ev):

   -69.2035 -39.0793 -35.3139 -35.3133 -35.2626 -15.5379 -15.5363 -15.1906
    13.3946  13.9723  15.5085  15.5425  17.5106  17.9878  18.6670  18.8520
    19.4119  20.8262

          k = 0.0909 0.0909 0.0909 (  3959 PWs)   bands (ev):

   -69.2095 -39.1450 -35.2744 -35.2744 -35.2711 -15.2768 -15.2683 -15.2683
    10.6615  14.1185  14.1185  16.5391  16.5391  16.8681  18.9295  18.9295
    19.9929  20.6652

          k = 0.0909 0.0909 0.1818 (  3966 PWs)   bands (ev):

   -69.2087 -39.1386 -35.2813 -35.2733 -35.2710 -15.3482 -15.2670 -15.2635
    11.1426  14.3361  14.3554  16.4287  16.4796  16.9503  18.7012  19.0493
    19.5188  20.0789

          k = 0.0909 0.0909 0.2727 (  3992 PWs)   bands (ev):

   -69.2077 -39.1303 -35.2905 -35.2720 -35.2707 -15.4470 -15.2590 -15.2572
    11.8826  14.6168  14.6736  16.3700  16.3987  16.9454  18.3564  19.0006
    19.3237  19.4428

          k = 0.0909 0.0909 0.3636 (  3994 PWs)   bands (ev):

   -69.2069 -39.1227 -35.2989 -35.2707 -35.2704 -15.5367 -15.2515 -15.2514
    12.7810  14.7008  15.0813  16.2989  16.4005  16.8595  17.9712  18.7163
    18.9369  19.4203

          k = 0.0909 0.0909 0.4545 (  4007 PWs)   bands (ev):

   -69.2063 -39.1181 -35.3038 -35.2702 -35.2699 -15.5895 -15.2480 -15.2470
    13.6656  14.4197  15.4383  16.1745  16.5156  16.7699  17.6949  18.4315
    18.6598  19.5237

          k = 0.0909 0.1818 0.1818 (  3984 PWs)   bands (ev):

   -69.2080 -39.1314 -35.2836 -35.2780 -35.2712 -15.3485 -15.3323 -15.2593
    11.5926  14.4938  14.6188  16.2700  16.3702  16.9131  18.7644  19.0172
    19.2359  19.7949

          k = 0.0909 0.1818 0.2727 (  3994 PWs)   bands (ev):

   -69.2070 -39.1221 -35.2920 -35.2795 -35.2705 -15.4379 -15.3300 -15.2517
    12.2705  14.6757  14.9647  16.1421  16.2715  16.7315  18.6110  18.9229
    19.2408  19.4560

          k = 0.0909 0.1818 0.3636 (  4001 PWs)   bands (ev):

   -69.2061 -39.1134 -35.3007 -35.2800 -35.2697 -15.5252 -15.3216 -15.2446
    13.0616  14.7215  15.2859  16.0686  16.2634  16.5479  18.3725  18.5771
    19.1013  19.7200

          k = 0.0909 0.1818 0.4545 (  3993 PWs)   bands (ev):

   -69.2056 -39.1083 -35.3060 -35.2802 -35.2692 -15.5767 -15.3165 -15.2403
    13.7875  14.4740  15.5175  16.0018  16.3647  16.4909  18.1992  18.2872
    18.8992  20.1084

          k = 0.0909 0.2727 0.2727 (  3989 PWs)   bands (ev):

   -69.2061 -39.1113 -35.2957 -35.2883 -35.2695 -15.4338 -15.4152 -15.2433
    12.8158  14.6587  15.4058  15.9390  16.2101  16.4306  18.6963  18.9064
    19.0874  19.7048

          k = 0.0909 0.2727 0.3636 (  3985 PWs)   bands (ev):

   -69.2052 -39.1013 -35.3033 -35.2922 -35.2686 -15.5102 -15.4124 -15.2356
    13.3704  14.5419  15.7742  15.8302  16.2030  16.3600  18.4781  18.8194
    19.1583  20.1173

          k = 0.0909 0.2727 0.4545 (  4006 PWs)   bands (ev):

   -69.2047 -39.0954 -35.3089 -35.2935 -35.2680 -15.5599 -15.4059 -15.2309
    13.7756  14.3545  15.7972  15.8477  16.1550  16.7541  18.1884  18.7888
    19.0873  20.6003

          k = 0.0909 0.3636 0.3636 (  3992 PWs)   bands (ev):

   -69.2043 -39.0901 -35.3068 -35.3024 -35.2675 -15.5010 -15.4902 -15.2272
    13.5656  14.3325  15.6507  15.8817  16.4032  16.7209  18.4860  18.9868
    19.1887  20.5637

          k = 0.0909 0.3636 0.4545 (  4002 PWs)   bands (ev):

   -69.2038 -39.0835 -35.3116 -35.3057 -35.2669 -15.5444 -15.4872 -15.2223
    13.6402  14.1966  15.5970  15.6797  16.7391  17.3611  18.2404  18.9495
    19.2816  20.7958

          k = 0.0909 0.4545 0.4545 (  3993 PWs)   bands (ev):

   -69.2033 -39.0764 -35.3134 -35.3128 -35.2662 -15.5359 -15.5344 -15.2171
    13.5314  14.1009  15.4861  15.5157  17.4523  17.8446  18.4160  18.5135
    19.4900  21.0194

          k = 0.1818 0.1818 0.1818 (  3989 PWs)   bands (ev):

   -69.2072 -39.1238 -35.2825 -35.2825 -35.2757 -15.3446 -15.3274 -15.3274
    12.0266  14.7610  14.7610  16.1713  16.1713  16.6504  18.9329  18.9329
    19.2930  20.0375

          k = 0.1818 0.1818 0.2727 (  3992 PWs)   bands (ev):

   -69.2063 -39.1137 -35.2922 -35.2810 -35.2777 -15.4290 -15.3257 -15.3208
    12.6697  14.9702  15.0333  16.0341  16.0388  16.3368  18.8050  19.0078
    19.4274  19.5989

          k = 0.1818 0.1818 0.3636 (  3994 PWs)   bands (ev):

   -69.2054 -39.1044 -35.3017 -35.2796 -35.2790 -15.5149 -15.3149 -15.3148
    13.3929  15.0074  15.2036  15.8991  16.0682  16.2650  18.6704  18.7433
    18.9524  20.1601

          k = 0.1818 0.1818 0.4545 (  3986 PWs)   bands (ev):

   -69.2049 -39.0989 -35.3073 -35.2797 -35.2788 -15.5656 -15.3112 -15.3084
    14.0172  14.6821  15.3921  15.7788  16.1845  16.4450  18.3322  18.5953
    18.6807  20.5299

          k = 0.1818 0.2727 0.2727 (  3994 PWs)   bands (ev):

   -69.2053 -39.1027 -35.2945 -35.2893 -35.2787 -15.4236 -15.4100 -15.3143
    13.2274  14.9964  15.4273  15.8397  15.9189  15.9976  18.8252  19.0096
    19.3285  20.0778

          k = 0.1818 0.2727 0.3636 (  3988 PWs)   bands (ev):

   -69.2045 -39.0926 -35.3031 -35.2918 -35.2783 -15.5016 -15.4059 -15.3060
    13.7701  14.8707  15.5750  15.7253  15.9737  16.0870  18.5906  18.8383
    19.2207  20.3803

          k = 0.1818 0.2727 0.4545 (  3991 PWs)   bands (ev):

   -69.2039 -39.0866 -35.3091 -35.2925 -35.2779 -15.5511 -15.3998 -15.3010
    14.1253  14.6660  15.5488  15.6706  16.0602  16.5356  18.2319  18.6757
    19.1298  20.6015

          k = 0.1818 0.3636 0.3636 (  3990 PWs)   bands (ev):

   -69.2036 -39.0817 -35.3055 -35.3023 -35.2773 -15.4928 -15.4851 -15.2978
    13.9820  14.6576  15.5747  15.6896  16.2719  16.2956  18.4622  18.6970
    19.4851  20.5436

          k = 0.1818 0.3636 0.4545 (  3993 PWs)   bands (ev):

   -69.2031 -39.0753 -35.3108 -35.3045 -35.2767 -15.5378 -15.4816 -15.2929
    14.0272  14.5323  15.5200  15.5675  16.4915  16.9250  18.1794  18.5402
    19.5617  20.7854

          k = 0.1818 0.4545 0.4545 (  4002 PWs)   bands (ev):

   -69.2026 -39.0685 -35.3120 -35.3116 -35.2760 -15.5303 -15.5293 -15.2880
    13.9234  14.4435  15.4329  15.4545  17.1746  17.2812  18.0690  18.2503
    19.7506  21.0766

          k = 0.2727 0.2727 0.2727 (  3998 PWs)   bands (ev):

   -69.2044 -39.0915 -35.2928 -35.2928 -35.2886 -15.4132 -15.4033 -15.4033
    13.7990  15.4441  15.4441  15.5182  15.7193  15.7193  18.8337  18.8337
    19.7984  19.7984

          k = 0.2727 0.2727 0.3636 (  3992 PWs)   bands (ev):

   -69.2035 -39.0812 -35.3030 -35.2913 -35.2908 -15.4904 -15.3973 -15.3971
    14.2965  15.1356  15.4426  15.6207  15.7209  15.9354  18.5785  18.6239
    19.6455  20.2948

          k = 0.2727 0.2727 0.4545 (  3990 PWs)   bands (ev):

   -69.2030 -39.0751 -35.3095 -35.2915 -35.2905 -15.5396 -15.3934 -15.3900
    14.5098  14.9115  15.4302  15.5701  15.9004  16.3710  18.1751  18.4970
    19.5915  20.6353

          k = 0.2727 0.3636 0.3636 (  3988 PWs)   bands (ev):

   -69.2027 -39.0707 -35.3037 -35.3021 -35.2902 -15.4821 -15.4783 -15.3891
    14.5958  15.0027  15.4918  15.5872  15.8170  16.0595  18.4143  18.4173
    19.9497  20.4947

          k = 0.2727 0.3636 0.4545 (  3992 PWs)   bands (ev):

   -69.2021 -39.0645 -35.3099 -35.3030 -35.2896 -15.5291 -15.4742 -15.3843
    14.5794  14.9171  15.4521  15.5076  16.1032  16.4659  18.0772  18.3313
    20.0121  20.8207

          k = 0.2727 0.4545 0.4545 (  4000 PWs)   bands (ev):

   -69.2016 -39.0581 -35.3102 -35.3100 -35.2888 -15.5231 -15.5225 -15.3799
    14.5067  14.8769  15.3854  15.4135  16.6254  16.6526  17.9060  18.1706
    20.1898  21.1137

          k = 0.3636 0.3636 0.3636 (  3999 PWs)   bands (ev):

   -69.2018 -39.0606 -35.3021 -35.3021 -35.3018 -15.4723 -15.4721 -15.4721
    14.9948  15.3300  15.4470  15.4470  15.8146  15.8146  18.2411  18.2411
    20.5003  20.5003

          k = 0.3636 0.3636 0.4545 (  4008 PWs)   bands (ev):

   -69.2013 -39.0545 -35.3090 -35.3018 -35.3012 -15.5211 -15.4684 -15.4664
    14.9932  15.1653  15.4767  15.6074  15.7984  16.1605  17.9824  18.1639
    20.5130  20.9127

          k = 0.3636 0.4545 0.4545 (  3994 PWs)   bands (ev):

   -69.2008 -39.0486 -35.3085 -35.3085 -35.3006 -15.5164 -15.5163 -15.4633
    15.1009  15.2496  15.3888  15.4963  16.0924  16.1437  17.8651  18.0301
    20.7354  21.1431

          k = 0.4545 0.4545 0.4545 (  3972 PWs)   bands (ev):

   -69.2003 -39.0430 -35.3076 -35.3075 -35.3075 -15.5126 -15.5126 -15.5122
    15.3317  15.4752  15.4752  15.7776  15.7776  15.8004  17.8552  17.8552
    21.1598  21.1598

     the Fermi energy is    17.5936 ev

!    total energy              =    -448.58655249 Ry
     estimated scf accuracy    <          4.6E-09 Ry
     smearing contrib. (-TS)   =       0.00005040 Ry
     internal energy E=F+TS    =    -448.58660289 Ry

     The total energy is F=E-TS. E is the sum of the following terms:
     one-electron contribution =    -151.34258927 Ry
     hartree contribution      =      91.61754640 Ry
     xc contribution           =     -52.88701349 Ry
     ewald contribution        =    -259.82070277 Ry
     one-center paw contrib.   =     -76.15384375 Ry

     convergence has been achieved in  36 iterations

     negative rho (up, down):  9.642E-04 0.000E+00

     Forces acting on atoms (cartesian axes, Ry/au):

     atom    1 type  1   force =     0.00000000    0.00000000    0.00000000
     atom    2 type  2   force =     0.00000000    0.00000000    0.00000000

     Total force =     0.000000     Total SCF correction =     0.000000


     Computing stress (Cartesian axis) and pressure


     negative rho (up, down):  9.642E-04 0.000E+00
          total   stress  (Ry/bohr**3)                   (kbar)     P=       31.33
   0.00021297   0.00000000   0.00000000           31.33        0.00        0.00
   0.00000000   0.00021297   0.00000000            0.00       31.33        0.00
   0.00000000   0.00000000   0.00021297            0.00        0.00       31.33


     BFGS Geometry Optimization
     Energy error            =      6.5E-03 Ry
     Gradient error          =      0.0E+00 Ry/Bohr
     Cell gradient error     =      1.0E+02 kbar

     number of scf cycles    =   1
     number of bfgs steps    =   0

     enthalpy           new  =    -448.4297618499 Ry

     new trust radius        =       0.0459700703 bohr
     new conv_thr            =       0.0000000100 Ry

     new unit-cell volume =    162.39272 a.u.^3 (    24.06412 Ang^3 )
     density =      7.15662 g/cm^3

CELL_PARAMETERS (alat=  5.55330037)
   0.982436202   0.000000000   0.000000000
   0.000000000   0.982436202   0.000000000
   0.000000000   0.000000000   0.982436202

ATOMIC_POSITIONS (crystal)
Fe               0.5000000000        0.5000000000        0.5000000000
Ti               0.0000000000        0.0000000000        0.0000000000



     Writing config-only to output data dir ./TiFe.save/ :
     XML data file
     NEW-OLD atomic charge density approx. for the potential
     New effective cutoffs (rho, wfc): 1798.49  128.47

     Check: negative core charge=   -0.000002

     negative rho (up, down):  9.435E-04 0.000E+00

     total cpu time spent up to now is       38.6 secs

     per-process dynamical memory:   152.6 Mb

     Self-consistent Calculation

     iteration #  1     ecut=   124.00 Ry     beta= 0.70
     Davidson diagonalization with overlap
     ethr =  1.00E-06,  avg # of iterations =  8.9

     negative rho (up, down):  9.478E-04 0.000E+00

     total cpu time spent up to now is       40.5 secs

     total energy              =    -448.58042502 Ry
     estimated scf accuracy    <       0.00008231 Ry

     iteration #  2     ecut=   124.00 Ry     beta= 0.70
     Davidson diagonalization with overlap
     ethr =  2.94E-07,  avg # of iterations =  3.6

     negative rho (up, down):  9.479E-04 0.000E+00

     total cpu time spent up to now is       41.6 secs

     total energy              =    -448.58090330 Ry
     estimated scf accuracy    <       0.00053213 Ry

     iteration #  3     ecut=   124.00 Ry     beta= 0.70
     Davidson diagonalization with overlap
     ethr =  2.94E-07,  avg # of iterations =  4.3

     negative rho (up, down):  9.489E-04 0.000E+00

     total cpu time spent up to now is       42.6 secs

     total energy              =    -448.58103535 Ry
     estimated scf accuracy    <       0.00127102 Ry

     iteration #  4     ecut=   124.00 Ry     beta= 0.70
     Davidson diagonalization with overlap
     ethr =  2.94E-07,  avg # of iterations =  3.8

     negative rho (up, down):  9.503E-04 0.000E+00

     total cpu time spent up to now is       43.7 secs

     total energy              =    -448.58110463 Ry
     estimated scf accuracy    <       0.00000496 Ry

     iteration #  5     ecut=   124.00 Ry     beta= 0.70
     Davidson diagonalization with overlap
     ethr =  1.77E-08,  avg # of iterations =  2.4

     negative rho (up, down):  9.500E-04 0.000E+00

     total cpu time spent up to now is       44.6 secs

     total energy              =    -448.58110577 Ry
     estimated scf accuracy    <       0.00000098 Ry

     iteration #  6     ecut=   124.00 Ry     beta= 0.70
     Davidson diagonalization with overlap
     ethr =  3.51E-09,  avg # of iterations =  2.5

     negative rho (up, down):  9.501E-04 0.000E+00

     total cpu time spent up to now is       45.6 secs

     total energy              =    -448.58110595 Ry
     estimated scf accuracy    <       0.00000001 Ry

     iteration #  7     ecut=   124.00 Ry     beta= 0.70
     Davidson diagonalization with overlap
     ethr =  3.73E-11,  avg # of iterations =  5.8

     negative rho (up, down):  9.501E-04 0.000E+00

     total cpu time spent up to now is       47.0 secs

     total energy              =    -448.58110598 Ry
     estimated scf accuracy    <       0.00000001 Ry

     iteration #  8     ecut=   124.00 Ry     beta= 0.70
     Davidson diagonalization with overlap
     ethr =  3.73E-11,  avg # of iterations =  1.0

     negative rho (up, down):  9.502E-04 0.000E+00

     total cpu time spent up to now is       47.9 secs

     End of self-consistent calculation

          k = 0.0000 0.0000 0.0000 (  3911 PWs)   bands (ev):

   -68.1328 -37.9298 -34.1964 -34.1964 -34.1964 -14.0064 -14.0064 -14.0064
    11.1058  14.6842  14.6842  17.7013  17.7013  17.7013  20.1977  20.1977
    22.2829  22.2829

          k = 0.0000 0.0000 0.0925 (  3947 PWs)   bands (ev):

   -68.1324 -37.9273 -34.1992 -34.1959 -34.1959 -14.0418 -14.0044 -14.0044
    11.2874  14.7725  14.7852  17.6880  17.6880  17.7420  20.0819  20.2419
    22.0113  22.0113

          k = 0.0000 0.0000 0.1851 (  3964 PWs)   bands (ev):

   -68.1315 -37.9208 -34.2068 -34.1946 -34.1946 -14.1359 -13.9991 -13.9991
    11.8130  15.0310  15.0499  17.6578  17.6578  17.8559  19.7476  20.3447
    21.3809  21.3809

          k = 0.0000 0.0000 0.2776 (  3988 PWs)   bands (ev):

   -68.1302 -37.9124 -34.2166 -34.1928 -34.1928 -14.2573 -13.9920 -13.9920
    12.6236  15.3630  15.4388  17.6334  17.6334  18.0180  19.2374  20.3965
    20.6845  20.6845

          k = 0.0000 0.0000 0.3701 (  4008 PWs)   bands (ev):

   -68.1290 -37.9046 -34.2255 -34.1912 -34.1912 -14.3673 -13.9856 -13.9856
    13.6129  15.5327  15.9456  17.6316  17.6316  18.1835  18.6332  20.1138
    20.1138  20.2198

          k = 0.0000 0.0000 0.4627 (  3992 PWs)   bands (ev):

   -68.1283 -37.9000 -34.2307 -34.1903 -34.1903 -14.4319 -13.9817 -13.9817
    14.5902  15.3279  16.4034  17.6442  17.6442  18.1162  18.2916  19.7900
    19.7900  19.9029

          k = 0.0000 0.0925 0.0925 (  3966 PWs)   bands (ev):

   -68.1321 -37.9247 -34.2007 -34.1971 -34.1954 -14.0436 -14.0353 -14.0023
    11.4652  14.8597  14.8833  17.5979  17.6663  17.8472  20.0656  20.2099
    21.7123  21.7409

          k = 0.0000 0.0925 0.1851 (  3978 PWs)   bands (ev):

   -68.1311 -37.9177 -34.2078 -34.1970 -34.1941 -14.1330 -14.0326 -13.9967
    11.9780  15.0960  15.1569  17.5111  17.6137  17.9752  19.8084  20.2998
    21.1285  21.1607

          k = 0.0000 0.0925 0.2776 (  3995 PWs)   bands (ev):

   -68.1298 -37.9085 -34.2177 -34.1963 -34.1924 -14.2530 -14.0245 -13.9893
    12.7649  15.4140  15.5310  17.4656  17.5556  18.0675  19.3737  20.2802
    20.5917  20.6216

          k = 0.0000 0.0925 0.3701 (  3991 PWs)   bands (ev):

   -68.1287 -37.9001 -34.2268 -34.1955 -34.1908 -14.3617 -14.0170 -13.9824
    13.7163  15.5812  15.9886  17.4750  17.5026  18.0724  18.8799  19.8366
    20.2631  20.4540

          k = 0.0000 0.0925 0.4627 (  3999 PWs)   bands (ev):

   -68.1280 -37.8952 -34.2322 -34.1950 -34.1899 -14.4256 -14.0125 -13.9784
    14.6433  15.3701  16.4024  17.4270  17.5195  18.0091  18.5298  19.5285
    20.1207  20.2589

          k = 0.0000 0.1851 0.1851 (  3972 PWs)   bands (ev):

   -68.1301 -37.9093 -34.2122 -34.2020 -34.1928 -14.1351 -14.1121 -13.9903
    12.4493  15.2562  15.4624  17.3217  17.5143  18.0613  19.8672  20.2538
    20.5755  20.8089

          k = 0.0000 0.1851 0.2776 (  4003 PWs)   bands (ev):

   -68.1289 -37.8982 -34.2212 -34.2051 -34.1912 -14.2417 -14.1106 -13.9818
    13.1545  15.4484  15.8761  17.1911  17.4227  17.9798  19.6744  19.9986
    20.4271  20.6170

          k = 0.0000 0.1851 0.3701 (  3997 PWs)   bands (ev):

   -68.1277 -37.8881 -34.2305 -34.2068 -34.1897 -14.3467 -14.1007 -13.9740
    13.9679  15.5283  16.2912  17.1540  17.3995  17.7505  19.3459  19.6398
    20.5780  20.6419

          k = 0.0000 0.1851 0.4627 (  3990 PWs)   bands (ev):

   -68.1270 -37.8821 -34.2361 -34.2077 -34.1888 -14.4086 -14.0945 -13.9694
    14.6970  15.3468  16.5837  17.2129  17.4467  17.5100  19.1646  19.3817
    20.6189  20.7498

          k = 0.0000 0.2776 0.2776 (  4000 PWs)   bands (ev):

   -68.1276 -37.8847 -34.2273 -34.2150 -34.1896 -14.2378 -14.2109 -13.9720
    13.6898  15.4345  16.3687  16.9657  17.3879  17.6897  19.7622  19.9211
    20.3268  20.8061

          k = 0.0000 0.2776 0.3701 (  3993 PWs)   bands (ev):

   -68.1265 -37.8723 -34.2355 -34.2214 -34.1882 -14.3272 -14.2087 -13.9630
    14.2176  15.3329  16.8480  16.8524  17.3373  17.5771  19.5715  19.9016
    20.5189  21.1068

          k = 0.0000 0.2776 0.4627 (  3996 PWs)   bands (ev):

   -68.1258 -37.8649 -34.2414 -34.2243 -34.1873 -14.3864 -14.2006 -13.9577
    14.5906  15.1721  16.8640  17.0509  17.1188  17.9710  19.3176  19.8487
    20.7675  21.3765

          k = 0.0000 0.3701 0.3701 (  4002 PWs)   bands (ev):

   -68.1253 -37.8577 -34.2412 -34.2339 -34.1868 -14.3157 -14.3002 -13.9529
    14.3516  15.1213  16.6465  16.9615  17.5062  18.0287  19.7205  20.2867
    20.3512  21.5452

          k = 0.0000 0.3701 0.4627 (  3999 PWs)   bands (ev):

   -68.1246 -37.8489 -34.2463 -34.2395 -34.1860 -14.3659 -14.2969 -13.9468
    14.3925  14.9873  16.5915  16.7016  17.9074  18.7170  19.4728  20.3592
    20.5912  21.8742

          k = 0.0000 0.4627 0.4627 (  3998 PWs)   bands (ev):

   -68.1239 -37.8394 -34.2494 -34.2484 -34.1852 -14.3547 -14.3525 -13.9404
    14.2560  14.8787  16.4610  16.4981  18.6388  19.1693  19.9138  20.1131
    20.6411  22.1685

          k = 0.0925 0.0925 0.0925 (  3959 PWs)   bands (ev):

   -68.1317 -37.9219 -34.2002 -34.2002 -34.1953 -14.0444 -14.0333 -14.0333
    11.6395  14.9626  14.9626  17.5739  17.5739  17.9326  20.1230  20.1230
    21.2620  21.9893

          k = 0.0925 0.0925 0.1851 (  3966 PWs)   bands (ev):

   -68.1307 -37.9145 -34.2082 -34.1988 -34.1951 -14.1300 -14.0323 -14.0278
    12.1417  15.1937  15.2305  17.4546  17.5108  18.0235  19.8727  20.2580
    20.7510  21.3568

          k = 0.0925 0.0925 0.2776 (  3992 PWs)   bands (ev):

   -68.1295 -37.9047 -34.2185 -34.1970 -34.1950 -14.2487 -14.0227 -14.0206
    12.9082  15.5373  15.5528  17.3937  17.4253  18.0184  19.4957  20.2150
    20.5471  20.6721

          k = 0.0925 0.0925 0.3701 (  3994 PWs)   bands (ev):

   -68.1283 -37.8957 -34.2279 -34.1954 -34.1949 -14.3563 -14.0140 -14.0138
    13.8269  15.6735  15.9874  17.3194  17.4310  17.9223  19.0766  19.9236
    20.1273  20.6640

          k = 0.0925 0.0925 0.4627 (  4007 PWs)   bands (ev):

   -68.1276 -37.8904 -34.2335 -34.1948 -34.1944 -14.4196 -14.0101 -14.0084
    14.7113  15.4384  16.3686  17.1858  17.5615  17.8225  18.7785  19.6330
    19.8281  20.7833

          k = 0.0925 0.1851 0.1851 (  3984 PWs)   bands (ev):

   -68.1298 -37.9057 -34.2116 -34.2035 -34.1954 -14.1311 -14.1099 -14.0231
    12.6083  15.3703  15.5155  17.2824  17.3951  17.9860  19.9436  20.2224
    20.4496  21.0502

          k = 0.0925 0.1851 0.2776 (  3994 PWs)   bands (ev):

   -68.1285 -37.8943 -34.2212 -34.2055 -34.1949 -14.2375 -14.1077 -14.0140
    13.3036  15.5768  15.8966  17.1452  17.2944  17.7884  19.7742  20.1312
    20.4622  20.6849

          k = 0.0925 0.1851 0.3701 (  4001 PWs)   bands (ev):

   -68.1274 -37.8838 -34.2310 -34.2066 -34.1941 -14.3420 -14.0977 -14.0056
    14.0989  15.6664  16.2392  17.0697  17.2933  17.5874  19.5112  19.7677
    20.3202  20.9807

          k = 0.0925 0.1851 0.4627 (  3993 PWs)   bands (ev):

   -68.1267 -37.8776 -34.2370 -34.2073 -34.1934 -14.4035 -14.0916 -14.0006
    14.8047  15.4658  16.4732  17.0068  17.3961  17.5419  19.3274  19.4608
    20.1069  21.4081

          k = 0.0925 0.2776 0.2776 (  3989 PWs)   bands (ev):

   -68.1273 -37.8807 -34.2267 -34.2156 -34.1938 -14.2331 -14.2088 -14.0040
    13.8452  15.5682  16.3783  16.9256  17.2424  17.4625  19.8891  20.0870
    20.3085  20.9571

          k = 0.0925 0.2776 0.3701 (  3985 PWs)   bands (ev):

   -68.1261 -37.8682 -34.2354 -34.2214 -34.1927 -14.3233 -14.2058 -13.9947
    14.3697  15.4677  16.7660  16.8208  17.2190  17.4255  19.6606  19.9983
    20.3884  21.4065

          k = 0.0925 0.2776 0.4627 (  4006 PWs)   bands (ev):

   -68.1254 -37.8607 -34.2416 -34.2238 -34.1920 -14.3825 -14.1980 -13.9891
    14.7270  15.3068  16.7743  16.8394  17.1906  17.8650  19.3595  19.9605
    20.3204  21.9262

          k = 0.0925 0.3701 0.3701 (  3992 PWs)   bands (ev):

   -68.1250 -37.8537 -34.2405 -34.2339 -34.1914 -14.3120 -14.2980 -13.9846
    14.5050  15.2555  16.6149  16.8670  17.4620  17.8411  19.6739  20.2195
    20.3937  21.8883

          k = 0.0925 0.3701 0.4627 (  4002 PWs)   bands (ev):

   -68.1243 -37.8451 -34.2459 -34.2390 -34.1906 -14.3631 -14.2945 -13.9786
    14.5358  15.1248  16.5583  16.6482  17.8314  18.5267  19.4210  20.1850
    20.4955  22.1298

          k = 0.0925 0.4627 0.4627 (  3993 PWs)   bands (ev):

   -68.1236 -37.8358 -34.2487 -34.2478 -34.1897 -14.3524 -14.3504 -13.9723
    14.4004  15.0168  16.4386  16.4710  18.5817  19.0321  19.6203  19.7397
    20.7230  22.3677

          k = 0.1851 0.1851 0.1851 (  3989 PWs)   bands (ev):

   -68.1288 -37.8962 -34.2102 -34.2102 -34.1999 -14.1264 -14.1043 -14.1043
    13.0584  15.6661  15.6661  17.1778  17.1778  17.7049  20.1299  20.1299
    20.5160  21.3126

          k = 0.1851 0.1851 0.2776 (  3992 PWs)   bands (ev):

   -68.1276 -37.8837 -34.2216 -34.2082 -34.2030 -14.2267 -14.1027 -14.0968
    13.7162  15.8878  15.9795  17.0326  17.0386  17.3649  19.9892  20.2252
    20.6553  20.8493

          k = 0.1851 0.1851 0.3701 (  3994 PWs)   bands (ev):

   -68.1264 -37.8723 -34.2326 -34.2065 -34.2053 -14.3293 -14.0900 -14.0893
    14.4363  15.9879  16.1339  16.8938  17.0785  17.2862  19.8400  19.9582
    20.1444  21.4577

          k = 0.1851 0.1851 0.4627 (  3986 PWs)   bands (ev):

   -68.1257 -37.8654 -34.2392 -34.2066 -34.2054 -14.3898 -14.0859 -14.0812
    15.0328  15.6804  16.3286  16.7732  17.2110  17.4975  19.5266  19.7523
    19.8560  21.8427

          k = 0.1851 0.2776 0.2776 (  3994 PWs)   bands (ev):

   -68.1263 -37.8699 -34.2251 -34.2175 -34.2050 -14.2204 -14.2030 -14.0890
    14.2784  15.9320  16.3991  16.8236  16.9154  17.0026  20.0256  20.2279
    20.5411  21.3701

          k = 0.1851 0.2776 0.3701 (  3988 PWs)   bands (ev):

   -68.1252 -37.8571 -34.2351 -34.2212 -34.2047 -14.3129 -14.1982 -14.0790
    14.7916  15.8198  16.5469  16.7080  16.9945  17.1108  19.7817  20.0480
    20.4243  21.6770

          k = 0.1851 0.2776 0.4627 (  3991 PWs)   bands (ev):

   -68.1245 -37.8495 -34.2422 -34.2225 -34.2043 -14.3719 -14.1909 -14.0729
    15.0937  15.6353  16.5059  16.6579  17.0999  17.6160  19.4113  19.8685
    20.3243  21.9187

          k = 0.1851 0.3701 0.3701 (  3990 PWs)   bands (ev):

   -68.1240 -37.8431 -34.2388 -34.2339 -34.2036 -14.3022 -14.2923 -14.0692
    14.9423  15.6045  16.5368  16.6659  17.3241  17.3758  19.6431  19.9066
    20.7104  21.8515

          k = 0.1851 0.3701 0.4627 (  3993 PWs)   bands (ev):

   -68.1234 -37.8347 -34.2450 -34.2375 -34.2028 -14.3554 -14.2882 -14.0633
    14.9421  15.4827  16.4794  16.5346  17.5760  18.0497  19.3531  19.7329
    20.7939  22.1140

          k = 0.1851 0.4627 0.4627 (  4002 PWs)   bands (ev):

   -68.1227 -37.8259 -34.2469 -34.2462 -34.2019 -14.3462 -14.3448 -14.0575
    14.8137  15.3842  16.3863  16.4106  18.3006  18.4358  19.2399  19.4241
    21.0010  22.4261

          k = 0.2776 0.2776 0.2776 (  3998 PWs)   bands (ev):

   -68.1251 -37.8556 -34.2230 -34.2230 -34.2165 -14.2074 -14.1954 -14.1954
    14.8694  16.4111  16.4111  16.4889  16.7036  16.7036  20.0404  20.0404
    21.0458  21.0458

          k = 0.2776 0.2776 0.3701 (  3992 PWs)   bands (ev):

   -68.1239 -37.8425 -34.2351 -34.2210 -34.2200 -14.2994 -14.1884 -14.1877
    15.3366  16.0971  16.3990  16.6115  16.7197  16.9503  19.7758  19.8130
    20.8798  21.5825

          k = 0.2776 0.2776 0.4627 (  3990 PWs)   bands (ev):

   -68.1233 -37.8347 -34.2430 -34.2213 -34.2199 -14.3580 -14.1842 -14.1787
    15.4817  15.8822  16.3777  16.5671  16.9403  17.4331  19.3504  19.6749
    20.8211  21.9535

          k = 0.2776 0.3701 0.3701 (  3988 PWs)   bands (ev):

   -68.1228 -37.8291 -34.2365 -34.2339 -34.2195 -14.2894 -14.2848 -14.1785
    15.5809  15.9705  16.4535  16.5742  16.8483  17.0974  19.5920  19.6017
    21.2092  21.7970

          k = 0.2776 0.3701 0.4627 (  3992 PWs)   bands (ev):

   -68.1221 -37.8210 -34.2439 -34.2355 -34.2188 -14.3453 -14.2799 -14.1727
    15.5169  15.8853  16.4113  16.4898  17.1672  17.5440  19.2410  19.5029
    21.2770  22.1507

          k = 0.2776 0.4627 0.4627 (  4000 PWs)   bands (ev):

   -68.1215 -37.8129 -34.2445 -34.2442 -34.2178 -14.3380 -14.3374 -14.1676
    15.4276  15.8461  16.3434  16.3777  17.7246  17.7449  19.0535  19.3361
    21.4712  22.4661

          k = 0.3701 0.3701 0.3701 (  3999 PWs)   bands (ev):

   -68.1217 -37.8162 -34.2344 -34.2344 -34.2338 -14.2778 -14.2778 -14.2774
    15.9339  16.3993  16.4136  16.4136  16.8312  16.8312  19.4091  19.4091
    21.8027  21.8027

          k = 0.3701 0.3701 0.4627 (  4008 PWs)   bands (ev):

   -68.1210 -37.8085 -34.2429 -34.2340 -34.2331 -14.3360 -14.2737 -14.2705
    15.9339  16.1374  16.4563  16.6001  16.8530  17.2071  19.1353  19.3247
    21.8165  22.2495

          k = 0.3701 0.4627 0.4627 (  3994 PWs)   bands (ev):

   -68.1204 -37.8010 -34.2423 -34.2423 -34.2324 -14.3306 -14.3305 -14.2675
    16.0496  16.2337  16.3587  16.4891  17.1428  17.1905  19.0075  19.1839
    22.0577  22.4980

          k = 0.4627 0.4627 0.4627 (  3972 PWs)   bands (ev):

   -68.1197 -37.7938 -34.2412 -34.2410 -34.2410 -14.3265 -14.3265 -14.3258
    16.3062  16.4709  16.4709  16.7792  16.7792  16.8251  18.9966  18.9966
    22.5163  22.5163

     the Fermi energy is    18.7506 ev

!    total energy              =    -448.58110598 Ry
     estimated scf accuracy    <          1.2E-09 Ry
     smearing contrib. (-TS)   =      -0.00001122 Ry
     internal energy E=F+TS    =    -448.58109476 Ry

     The total energy is F=E-TS. E is the sum of the following terms:
     one-electron contribution =    -144.20388700 Ry
     hartree contribution      =      89.22796876 Ry
     xc contribution           =     -52.98444936 Ry
     ewald contribution        =    -264.46572526 Ry
     one-center paw contrib.   =     -76.15500190 Ry

     convergence has been achieved in   8 iterations

     negative rho (up, down):  9.502E-04 0.000E+00

     Forces acting on atoms (cartesian axes, Ry/au):

     atom    1 type  1   force =     0.00000000    0.00000000    0.00000000
     atom    2 type  2   force =     0.00000000    0.00000000    0.00000000

     Total force =     0.000000     Total SCF correction =     0.000000


     Computing stress (Cartesian axis) and pressure


     negative rho (up, down):  9.502E-04 0.000E+00
          total   stress  (Ry/bohr**3)                   (kbar)     P=      154.33
   0.00104912   0.00000000   0.00000000          154.33        0.00        0.00
   0.00000000   0.00104912   0.00000000            0.00      154.33        0.00
   0.00000000   0.00000000   0.00104912            0.00        0.00      154.33

     Energy error            =      2.7E-03 Ry
     Gradient error          =      0.0E+00 Ry/Bohr
     Cell gradient error     =      2.0E+01 kbar

     number of scf cycles    =   2
     number of bfgs steps    =   1

     enthalpy           old  =    -448.4297618499 Ry
     enthalpy           new  =    -448.4324326022 Ry

     CASE: enthalpy          _new < enthalpy          _old

     new trust radius        =       0.0070660115 bohr
     new conv_thr            =            1.0E-10 Ry

     new unit-cell volume =    163.74714 a.u.^3 (    24.26482 Ang^3 )
     density =      7.09743 g/cm^3

CELL_PARAMETERS (alat=  5.55330037)
   0.985159941   0.000000000   0.000000000
   0.000000000   0.985159941   0.000000000
   0.000000000   0.000000000   0.985159941

ATOMIC_POSITIONS (crystal)
Fe               0.5000000000        0.5000000000        0.5000000000
Ti               0.0000000000        0.0000000000        0.0000000000



     Writing config-only to output data dir ./TiFe.save/ :
     XML data file
     NEW-OLD atomic charge density approx. for the potential
     New effective cutoffs (rho, wfc): 1788.56  127.76

     Check: negative core charge=   -0.000002

     negative rho (up, down):  9.539E-04 0.000E+00

     total cpu time spent up to now is       49.9 secs

     per-process dynamical memory:   153.2 Mb

     Self-consistent Calculation

     iteration #  1     ecut=   124.00 Ry     beta= 0.70
     Davidson diagonalization with overlap
     ethr =  1.00E-06,  avg # of iterations =  4.4

     Threshold (ethr) on eigenvalues was too large:
     Diagonalizing with lowered threshold

     Davidson diagonalization with overlap
     ethr =  2.46E-08,  avg # of iterations =  5.0

     negative rho (up, down):  9.531E-04 0.000E+00

     total cpu time spent up to now is       52.1 secs

     total energy              =    -448.58238274 Ry
     estimated scf accuracy    <       0.00001282 Ry

     iteration #  2     ecut=   124.00 Ry     beta= 0.70
     Davidson diagonalization with overlap
     ethr =  4.58E-08,  avg # of iterations =  4.3

     negative rho (up, down):  9.522E-04 0.000E+00

     total cpu time spent up to now is       53.3 secs

     total energy              =    -448.58236821 Ry
     estimated scf accuracy    <       0.00091908 Ry

     iteration #  3     ecut=   124.00 Ry     beta= 0.70
     Davidson diagonalization with overlap
     ethr =  4.58E-08,  avg # of iterations =  4.8

     negative rho (up, down):  9.531E-04 0.000E+00

     total cpu time spent up to now is       54.4 secs

     total energy              =    -448.58242969 Ry
     estimated scf accuracy    <       0.00000772 Ry

     iteration #  4     ecut=   124.00 Ry     beta= 0.70
     Davidson diagonalization with overlap
     ethr =  2.76E-08,  avg # of iterations =  1.7

     negative rho (up, down):  9.530E-04 0.000E+00

     total cpu time spent up to now is       55.3 secs

     total energy              =    -448.58243072 Ry
     estimated scf accuracy    <       0.00000092 Ry

     iteration #  5     ecut=   124.00 Ry     beta= 0.70
     Davidson diagonalization with overlap
     ethr =  3.28E-09,  avg # of iterations =  3.7

     negative rho (up, down):  9.528E-04 0.000E+00

     total cpu time spent up to now is       56.4 secs

     total energy              =    -448.58243089 Ry
     estimated scf accuracy    <       0.00000005 Ry

     iteration #  6     ecut=   124.00 Ry     beta= 0.70
     Davidson diagonalization with overlap
     ethr =  1.72E-10,  avg # of iterations =  4.7

     negative rho (up, down):  9.528E-04 0.000E+00

     total cpu time spent up to now is       57.5 secs

     total energy              =    -448.58243092 Ry
     estimated scf accuracy    <          9.3E-09 Ry

     iteration #  7     ecut=   124.00 Ry     beta= 0.70
     Davidson diagonalization with overlap
     ethr =  3.32E-11,  avg # of iterations =  2.6

     negative rho (up, down):  9.528E-04 0.000E+00

     total cpu time spent up to now is       58.5 secs

     total energy              =    -448.58243092 Ry
     estimated scf accuracy    <          8.8E-09 Ry

     iteration #  8     ecut=   124.00 Ry     beta= 0.70
     Davidson diagonalization with overlap
     ethr =  3.14E-11,  avg # of iterations =  1.7

     negative rho (up, down):  9.528E-04 0.000E+00

     total cpu time spent up to now is       59.4 secs

     total energy              =    -448.58243092 Ry
     estimated scf accuracy    <          3.4E-09 Ry

     iteration #  9     ecut=   124.00 Ry     beta= 0.70
     Davidson diagonalization with overlap
     ethr =  1.23E-11,  avg # of iterations =  2.0

     negative rho (up, down):  9.528E-04 0.000E+00

     total cpu time spent up to now is       60.4 secs

     total energy              =    -448.58243092 Ry
     estimated scf accuracy    <          1.5E-09 Ry

     iteration # 10     ecut=   124.00 Ry     beta= 0.70
     Davidson diagonalization with overlap
     ethr =  5.36E-12,  avg # of iterations =  1.2

     negative rho (up, down):  9.527E-04 0.000E+00

     total cpu time spent up to now is       61.3 secs

     total energy              =    -448.58243092 Ry
     estimated scf accuracy    <          1.6E-09 Ry

     iteration # 11     ecut=   124.00 Ry     beta= 0.70
     Davidson diagonalization with overlap
     ethr =  5.36E-12,  avg # of iterations =  2.0

     negative rho (up, down):  9.527E-04 0.000E+00

     total cpu time spent up to now is       62.3 secs

     total energy              =    -448.58243092 Ry
     estimated scf accuracy    <          4.2E-10 Ry

     iteration # 12     ecut=   124.00 Ry     beta= 0.70
     Davidson diagonalization with overlap
     ethr =  1.52E-12,  avg # of iterations =  2.7

     negative rho (up, down):  9.527E-04 0.000E+00

     total cpu time spent up to now is       63.2 secs

     total energy              =    -448.58243092 Ry
     estimated scf accuracy    <          2.5E-10 Ry

     iteration # 13     ecut=   124.00 Ry     beta= 0.70
     Davidson diagonalization with overlap
     ethr =  8.87E-13,  avg # of iterations =  1.1

     negative rho (up, down):  9.527E-04 0.000E+00

     total cpu time spent up to now is       64.1 secs

     total energy              =    -448.58243092 Ry
     estimated scf accuracy    <          1.8E-10 Ry

     iteration # 14     ecut=   124.00 Ry     beta= 0.70
     Davidson diagonalization with overlap
     ethr =  6.26E-13,  avg # of iterations =  1.0

     negative rho (up, down):  9.527E-04 0.000E+00

     total cpu time spent up to now is       65.0 secs

     total energy              =    -448.58243092 Ry
     estimated scf accuracy    <          1.7E-10 Ry

     iteration # 15     ecut=   124.00 Ry     beta= 0.70
     Davidson diagonalization with overlap
     ethr =  6.22E-13,  avg # of iterations =  1.0

     negative rho (up, down):  9.527E-04 0.000E+00

     total cpu time spent up to now is       65.9 secs

     total energy              =    -448.58243092 Ry
     estimated scf accuracy    <          1.4E-10 Ry

     iteration # 16     ecut=   124.00 Ry     beta= 0.70
     Davidson diagonalization with overlap
     ethr =  4.90E-13,  avg # of iterations =  1.0

     negative rho (up, down):  9.528E-04 0.000E+00

     total cpu time spent up to now is       66.8 secs

     End of self-consistent calculation

          k = 0.0000 0.0000 0.0000 (  3911 PWs)   bands (ev):

   -68.3047 -38.1245 -34.3678 -34.3678 -34.3678 -14.2043 -14.2043 -14.2043
    10.9524  14.5538  14.5538  17.5348  17.5348  17.5348  20.0063  20.0063
    22.0679  22.0679

          k = 0.0000 0.0000 0.0923 (  3947 PWs)   bands (ev):

   -68.3044 -38.1222 -34.3707 -34.3674 -34.3674 -14.2386 -14.2023 -14.2023
    11.1327  14.6412  14.6529  17.5215  17.5215  17.5750  19.8922  20.0498
    21.7996  21.7996

          k = 0.0000 0.0000 0.1846 (  3964 PWs)   bands (ev):

   -68.3034 -38.1158 -34.3781 -34.3661 -34.3661 -14.3300 -14.1970 -14.1970
    11.6544  14.8974  14.9124  17.4915  17.4915  17.6877  19.5627  20.1505
    21.1768  21.1768

          k = 0.0000 0.0000 0.2768 (  3988 PWs)   bands (ev):

   -68.3022 -38.1075 -34.3878 -34.3644 -34.3644 -14.4480 -14.1901 -14.1901
    12.4599  15.2177  15.3012  17.4670  17.4670  17.8480  19.0594  20.1993
    20.4885  20.4885

          k = 0.0000 0.0000 0.3691 (  4008 PWs)   bands (ev):

   -68.3011 -38.0998 -34.3965 -34.3629 -34.3629 -14.5548 -14.1838 -14.1838
    13.4446  15.3781  15.8029  17.4647  17.4647  18.0115  18.4631  19.9245
    19.9245  20.0202

          k = 0.0000 0.0000 0.4614 (  3992 PWs)   bands (ev):

   -68.3004 -38.0953 -34.4017 -34.3620 -34.3620 -14.6176 -14.1800 -14.1800
    14.4209  15.1640  16.2556  17.4766  17.4766  17.9529  18.1183  19.6046
    19.6046  19.7038

          k = 0.0000 0.0923 0.0923 (  3966 PWs)   bands (ev):

   -68.3040 -38.1196 -34.3720 -34.3687 -34.3669 -14.2402 -14.2323 -14.2002
    11.3091  14.7272  14.7497  17.4327  17.5000  17.6787  19.8761  20.0183
    21.5044  21.5324

          k = 0.0000 0.0923 0.1846 (  3978 PWs)   bands (ev):

   -68.3031 -38.1127 -34.3790 -34.3686 -34.3657 -14.3272 -14.2296 -14.1947
    11.8184  14.9606  15.0188  17.3470  17.4478  17.8051  19.6225  20.1062
    20.9270  20.9595

          k = 0.0000 0.0923 0.2768 (  3995 PWs)   bands (ev):

   -68.3019 -38.1038 -34.3888 -34.3678 -34.3640 -14.4438 -14.2217 -14.1874
    12.6006  15.2709  15.3893  17.3017  17.3899  17.8962  19.1938  20.0850
    20.3959  20.4267

          k = 0.0000 0.0923 0.3691 (  3991 PWs)   bands (ev):

   -68.3007 -38.0955 -34.3978 -34.3670 -34.3625 -14.5494 -14.2144 -14.1808
    13.5483  15.4273  15.8440  17.3105  17.3371  17.9013  18.7062  19.6466
    20.0722  20.2556

          k = 0.0000 0.0923 0.4614 (  3999 PWs)   bands (ev):

   -68.3001 -38.0907 -34.4031 -34.3666 -34.3616 -14.6115 -14.2100 -14.1768
    14.4751  15.2072  16.2539  17.2627  17.3537  17.8394  18.3598  19.3410
    19.9311  20.0605

          k = 0.0000 0.1846 0.1846 (  3972 PWs)   bands (ev):

   -68.3022 -38.1046 -34.3831 -34.3735 -34.3644 -14.3290 -14.3070 -14.1884
    12.2870  15.1184  15.3200  17.1600  17.3490  17.8897  19.6802  20.0611
    20.3798  20.6121

          k = 0.0000 0.1846 0.2768 (  4003 PWs)   bands (ev):

   -68.3009 -38.0938 -34.3920 -34.3765 -34.3629 -14.4328 -14.3055 -14.1802
    12.9895  15.3064  15.7277  17.0309  17.2573  17.8092  19.4905  19.8074
    20.2320  20.4223

          k = 0.0000 0.1846 0.3691 (  3997 PWs)   bands (ev):

   -68.2998 -38.0840 -34.4012 -34.3781 -34.3614 -14.5349 -14.2958 -14.1726
    13.8023  15.3795  16.1380  16.9940  17.2330  17.5830  19.1662  19.4518
    20.3786  20.4464

          k = 0.0000 0.1846 0.4614 (  3990 PWs)   bands (ev):

   -68.2992 -38.0781 -34.4067 -34.3788 -34.3605 -14.5952 -14.2898 -14.1681
    14.5351  15.1897  16.4287  17.0516  17.2777  17.3461  18.9867  19.1957
    20.4161  20.5525

          k = 0.0000 0.2768 0.2768 (  4000 PWs)   bands (ev):

   -68.2997 -38.0808 -34.3977 -34.3862 -34.3614 -14.4290 -14.4032 -14.1707
    13.5261  15.2911  16.2135  16.8082  17.2204  17.5227  19.5733  19.7343
    20.1317  20.6089

          k = 0.0000 0.2768 0.3691 (  3993 PWs)   bands (ev):

   -68.2986 -38.0688 -34.4058 -34.3923 -34.3600 -14.5161 -14.4009 -14.1619
    14.0593  15.1868  16.6908  16.6918  17.1747  17.4038  19.3838  19.7145
    20.3201  20.9056

          k = 0.0000 0.2768 0.4614 (  3996 PWs)   bands (ev):

   -68.2980 -38.0616 -34.4116 -34.3949 -34.3591 -14.5737 -14.3931 -14.1567
    14.4401  15.0214  16.7073  16.8922  16.9535  17.7908  19.1314  19.6631
    20.5625  21.1717

          k = 0.0000 0.3691 0.3691 (  4002 PWs)   bands (ev):

   -68.2975 -38.0547 -34.4111 -34.4043 -34.3587 -14.5049 -14.4901 -14.1521
    14.2032  14.9754  16.4927  16.8036  17.3368  17.8468  19.5289  20.0955
    20.1528  21.3386

          k = 0.0000 0.3691 0.4614 (  3999 PWs)   bands (ev):

   -68.2969 -38.0464 -34.4162 -34.4096 -34.3579 -14.5540 -14.4868 -14.1462
    14.2509  14.8406  16.4382  16.5469  17.7327  18.5284  19.2825  20.1661
    20.3879  21.6634

          k = 0.0000 0.4614 0.4614 (  3998 PWs)   bands (ev):

   -68.2962 -38.0373 -34.4191 -34.4182 -34.3571 -14.5431 -14.5411 -14.1400
    14.1187  14.7340  16.3093  16.3458  18.4587  18.9806  19.7139  19.9110
    20.4449  21.9541

          k = 0.0923 0.0923 0.0923 (  3959 PWs)   bands (ev):

   -68.3037 -38.1169 -34.3715 -34.3715 -34.3669 -14.2410 -14.2304 -14.2304
    11.4822  14.8283  14.8283  17.4090  17.4090  17.7628  19.9326  19.9326
    21.0593  21.7778

          k = 0.0923 0.0923 0.1846 (  3966 PWs)   bands (ev):

   -68.3027 -38.1096 -34.3793 -34.3702 -34.3668 -14.3243 -14.2293 -14.2250
    11.9810  15.0573  15.0911  17.2911  17.3464  17.8523  19.6859  20.0651
    20.5544  21.1527

          k = 0.0923 0.0923 0.2768 (  3992 PWs)   bands (ev):

   -68.3015 -38.1000 -34.3895 -34.3685 -34.3666 -14.4396 -14.2200 -14.2180
    12.7433  15.3905  15.4129  17.2304  17.2616  17.8472  19.3141  20.0211
    20.3518  20.4759

          k = 0.0923 0.0923 0.3691 (  3994 PWs)   bands (ev):

   -68.3004 -38.0913 -34.3988 -34.3669 -34.3664 -14.5442 -14.2115 -14.2113
    13.6589  15.5181  15.8432  17.1566  17.2666  17.7528  18.9004  19.7309
    19.9373  20.4652

          k = 0.0923 0.0923 0.4614 (  4007 PWs)   bands (ev):

   -68.2997 -38.0861 -34.4043 -34.3664 -34.3660 -14.6058 -14.2076 -14.2061
    14.5437  15.2754  16.2206  17.0246  17.3946  17.6546  18.6058  19.4411
    19.6417  20.5819

          k = 0.0923 0.1846 0.1846 (  3984 PWs)   bands (ev):

   -68.3018 -38.1011 -34.3826 -34.3749 -34.3671 -14.3252 -14.3049 -14.2203
    12.4449  15.2308  15.3726  17.1210  17.2317  17.8149  19.7556  20.0301
    20.2559  20.8498

          k = 0.0923 0.1846 0.2768 (  3994 PWs)   bands (ev):

   -68.3006 -38.0900 -34.3919 -34.3769 -34.3665 -14.4288 -14.3027 -14.2115
    13.1376  15.4334  15.7479  16.9853  17.1312  17.6198  19.5887  19.9383
    20.2672  20.4887

          k = 0.0923 0.1846 0.3691 (  4001 PWs)   bands (ev):

   -68.2995 -38.0798 -34.4017 -34.3778 -34.3657 -14.5304 -14.2929 -14.2033
    13.9326  15.5159  16.0869  16.9101  17.1288  17.4216  19.3297  19.5777
    20.1255  20.7792

          k = 0.0923 0.1846 0.4614 (  3993 PWs)   bands (ev):

   -68.2988 -38.0738 -34.4075 -34.3784 -34.3651 -14.5902 -14.2869 -14.1984
    14.6421  15.3075  16.3208  16.8465  17.2316  17.3739  19.1478  19.2732
    19.9139  21.2003

          k = 0.0923 0.2768 0.2768 (  3989 PWs)   bands (ev):

   -68.2994 -38.0769 -34.3971 -34.3868 -34.3655 -14.4244 -14.4010 -14.2018
    13.6801  15.4232  16.2231  16.7684  17.0774  17.2979  19.6987  19.8987
    20.1135  20.7571

          k = 0.0923 0.2768 0.3691 (  3985 PWs)   bands (ev):

   -68.2983 -38.0648 -34.4057 -34.3922 -34.3643 -14.5123 -14.3981 -14.1927
    14.2101  15.3200  16.6084  16.6622  17.0570  17.2549  19.4718  19.8103
    20.1918  21.2006

          k = 0.0923 0.2768 0.4614 (  4006 PWs)   bands (ev):

   -68.2976 -38.0576 -34.4118 -34.3944 -34.3636 -14.5699 -14.3905 -14.1873
    14.5754  15.1547  16.6186  16.6813  17.0251  17.6871  19.1726  19.7736
    20.1232  21.7144

          k = 0.0923 0.3691 0.3691 (  3992 PWs)   bands (ev):

   -68.2972 -38.0509 -34.4105 -34.4043 -34.3630 -14.5014 -14.4880 -14.1829
    14.3553  15.1081  16.4613  16.7100  17.2929  17.6615  19.4842  20.0224
    20.2014  21.6767

          k = 0.0923 0.3691 0.4614 (  4002 PWs)   bands (ev):

   -68.2965 -38.0426 -34.4159 -34.4091 -34.3623 -14.5512 -14.4845 -14.1771
    14.3931  14.9766  16.4051  16.4939  17.6568  18.3400  19.2324  19.9874
    20.3018  21.9168

          k = 0.0923 0.4614 0.4614 (  3993 PWs)   bands (ev):

   -68.2959 -38.0337 -34.4185 -34.4176 -34.3615 -14.5408 -14.5390 -14.1710
    14.2619  14.8706  16.2869  16.3188  18.4013  18.8422  19.4275  19.5433
    20.5262  22.1524

          k = 0.1846 0.1846 0.1846 (  3989 PWs)   bands (ev):

   -68.3009 -38.0919 -34.3812 -34.3812 -34.3716 -14.3206 -14.2993 -14.2993
    12.8925  15.5219  15.5219  17.0174  17.0174  17.5367  19.9389  19.9389
    20.3207  21.1090

          k = 0.1846 0.1846 0.2768 (  3992 PWs)   bands (ev):

   -68.2997 -38.0799 -34.3923 -34.3793 -34.3745 -14.4183 -14.2977 -14.2920
    13.5481  15.7416  15.8286  16.8733  16.8792  17.2009  19.8003  20.0308
    20.4593  20.6496

          k = 0.1846 0.1846 0.3691 (  3994 PWs)   bands (ev):

   -68.2986 -38.0687 -34.4031 -34.3776 -34.3766 -14.5181 -14.2853 -14.2848
    14.2691  15.8313  15.9857  16.7352  16.9172  17.1233  19.6535  19.7641
    19.9541  21.2503

          k = 0.1846 0.1846 0.4614 (  3986 PWs)   bands (ev):

   -68.2979 -38.0621 -34.4096 -34.3778 -34.3766 -14.5770 -14.2813 -14.2769
    14.8704  15.5209  16.1795  16.6145  17.0470  17.3292  19.3358  19.5679
    19.6683  21.6331

          k = 0.1846 0.2768 0.2768 (  3994 PWs)   bands (ev):

   -68.2985 -38.0665 -34.3956 -34.3885 -34.3763 -14.4121 -14.3954 -14.2844
    14.1098  15.7828  16.2441  16.6667  16.7565  16.8423  19.8340  20.0333
    20.3477  21.1636

          k = 0.1846 0.2768 0.3691 (  3988 PWs)   bands (ev):

   -68.2974 -38.0541 -34.4054 -34.3919 -34.3760 -14.5022 -14.3907 -14.2747
    14.6284  15.6683  16.3920  16.5511  16.8314  16.9470  19.5915  19.8547
    20.2322  21.4700

          k = 0.1846 0.2768 0.4614 (  3991 PWs)   bands (ev):

   -68.2967 -38.0468 -34.4123 -34.3931 -34.3756 -14.5596 -14.3836 -14.2688
    14.9394  15.4806  16.3534  16.5003  16.9336  17.4430  19.2230  19.6780
    20.1338  21.7084

          k = 0.1846 0.3691 0.3691 (  3990 PWs)   bands (ev):

   -68.2963 -38.0407 -34.4088 -34.4043 -34.3748 -14.4919 -14.4823 -14.2651
    14.7893  15.4531  16.3835  16.5102  17.1559  17.2026  19.4545  19.7133
    20.5149  21.6427

          k = 0.1846 0.3691 0.4614 (  3993 PWs)   bands (ev):

   -68.2957 -38.0326 -34.4149 -34.4076 -34.3741 -14.5436 -14.4783 -14.2594
    14.7963  15.3309  16.3266  16.3804  17.4026  17.8695  19.1657  19.5424
    20.5973  21.9019

          k = 0.1846 0.4614 0.4614 (  4002 PWs)   bands (ev):

   -68.2950 -38.0242 -34.4167 -34.4161 -34.3732 -14.5347 -14.5334 -14.2538
    14.6718  15.2340  16.2344  16.2583  18.1206  18.2509  19.0528  19.2367
    20.8014  22.2106

          k = 0.2768 0.2768 0.2768 (  3998 PWs)   bands (ev):

   -68.2973 -38.0528 -34.3936 -34.3936 -34.3875 -14.3996 -14.3879 -14.3879
    14.6976  16.2570  16.2570  16.3342  16.5464  16.5464  19.8476  19.8476
    20.8468  20.8468

          k = 0.2768 0.2768 0.3691 (  3992 PWs)   bands (ev):

   -68.2962 -38.0401 -34.4054 -34.3917 -34.3908 -14.4891 -14.3810 -14.3805
    15.1704  15.9437  16.2467  16.4532  16.5601  16.7881  19.5845  19.6231
    20.6829  21.3770

          k = 0.2768 0.2768 0.4614 (  3990 PWs)   bands (ev):

   -68.2956 -38.0326 -34.4131 -34.3920 -34.3906 -14.5462 -14.3770 -14.3718
    15.3268  15.7274  16.2267  16.4078  16.7738  17.2630  19.1626  19.4868
    20.6250  21.7430

          k = 0.2768 0.3691 0.3691 (  3988 PWs)   bands (ev):

   -68.2951 -38.0272 -34.4067 -34.4043 -34.3903 -14.4794 -14.4749 -14.3715
    15.4243  15.8157  16.3003  16.4167  16.6828  16.9315  19.4040  19.4125
    21.0082  21.5891

          k = 0.2768 0.3691 0.4614 (  3992 PWs)   bands (ev):

   -68.2945 -38.0195 -34.4138 -34.4057 -34.3896 -14.5338 -14.4701 -14.3659
    15.3675  15.7308  16.2585  16.3329  16.9968  17.3714  19.0551  19.3158
    21.0752  21.9383

          k = 0.2768 0.4614 0.4614 (  4000 PWs)   bands (ev):

   -68.2938 -38.0117 -34.4144 -34.4141 -34.3886 -14.5267 -14.5261 -14.3608
    15.2807  15.6913  16.1907  16.2240  17.5485  17.5701  18.8703  19.1501
    21.2667  22.2501

          k = 0.3691 0.3691 0.3691 (  3999 PWs)   bands (ev):

   -68.2941 -38.0148 -34.4046 -34.4046 -34.4041 -14.4681 -14.4681 -14.4677
    15.7843  16.2279  16.2595  16.2595  16.6686  16.6686  19.2226  19.2226
    21.5948  21.5948

          k = 0.3691 0.3691 0.4614 (  4008 PWs)   bands (ev):

   -68.2934 -38.0073 -34.4129 -34.4043 -34.4034 -14.5247 -14.4640 -14.4610
    15.7839  15.9825  16.3004  16.4411  16.6841  17.0396  18.9513  19.1394
    21.6084  22.0361

          k = 0.3691 0.4614 0.4614 (  3994 PWs)   bands (ev):

   -68.2928 -38.0001 -34.4123 -34.4123 -34.4028 -14.5194 -14.5194 -14.4580
    15.8983  16.0766  16.2040  16.3305  16.9746  17.0229  18.8252  18.9997
    21.8466  22.2816

          k = 0.4614 0.4614 0.4614 (  3972 PWs)   bands (ev):

   -68.2921 -37.9932 -34.4112 -34.4111 -34.4111 -14.5154 -14.5154 -14.5147
    16.1507  16.3120  16.3120  16.6189  16.6189  16.6611  18.8144  18.8144
    22.2997  22.2997

     the Fermi energy is    18.5671 ev

!    total energy              =    -448.58243092 Ry
     estimated scf accuracy    <          9.9E-11 Ry
     smearing contrib. (-TS)   =       0.00000149 Ry
     internal energy E=F+TS    =    -448.58243240 Ry

     The total energy is F=E-TS. E is the sum of the following terms:
     one-electron contribution =    -145.32366550 Ry
     hartree contribution      =      89.59917539 Ry
     xc contribution           =     -52.96857446 Ry
     ewald contribution        =    -263.73453892 Ry
     one-center paw contrib.   =     -76.15482891 Ry

     convergence has been achieved in  16 iterations

     negative rho (up, down):  9.528E-04 0.000E+00

     Forces acting on atoms (cartesian axes, Ry/au):

     atom    1 type  1   force =     0.00000000    0.00000000    0.00000000
     atom    2 type  2   force =     0.00000000    0.00000000    0.00000000

     Total force =     0.000000     Total SCF correction =     0.000000


     Computing stress (Cartesian axis) and pressure


     negative rho (up, down):  9.528E-04 0.000E+00
          total   stress  (Ry/bohr**3)                   (kbar)     P=      133.48
   0.00090738   0.00000000   0.00000000          133.48        0.00        0.00
   0.00000000   0.00090738   0.00000000            0.00      133.48        0.00
   0.00000000   0.00000000   0.00090738            0.00        0.00      133.48

     Energy error            =      8.5E-05 Ry
     Gradient error          =      0.0E+00 Ry/Bohr
     Cell gradient error     =      1.2E+00 kbar

     number of scf cycles    =   3
     number of bfgs steps    =   2

     enthalpy           old  =    -448.4324326022 Ry
     enthalpy           new  =    -448.4325175468 Ry

     CASE: enthalpy          _new < enthalpy          _old

     new trust radius        =       0.0004084707 bohr
     new conv_thr            =            1.0E-10 Ry

     new unit-cell volume =    163.66875 a.u.^3 (    24.25321 Ang^3 )
     density =      7.10083 g/cm^3

CELL_PARAMETERS (alat=  5.55330037)
   0.985002705   0.000000000   0.000000000
   0.000000000   0.985002705   0.000000000
   0.000000000   0.000000000   0.985002705

ATOMIC_POSITIONS (crystal)
Fe               0.5000000000        0.5000000000        0.5000000000
Ti               0.0000000000        0.0000000000        0.0000000000



     Writing config-only to output data dir ./TiFe.save/ :
     XML data file
     NEW-OLD atomic charge density approx. for the potential
     New effective cutoffs (rho, wfc): 1789.13  127.80

     Check: negative core charge=   -0.000002

     negative rho (up, down):  9.526E-04 0.000E+00

[...]
    15.7925  15.9914  16.3093  16.4502  16.6938  17.0492  18.9618  19.1501
    21.6203  22.0483

          k = 0.3692 0.4615 0.4615 (  3994 PWs)   bands (ev):

   -68.2829 -37.9887 -34.4026 -34.4025 -34.3930 -14.5086 -14.5085 -14.4471
    15.9070  16.0856  16.2129  16.3396  16.9843  17.0326  18.8356  19.0103
    21.8587  22.2941

          k = 0.4615 0.4615 0.4615 (  3972 PWs)   bands (ev):

   -68.2823 -37.9818 -34.4015 -34.4013 -34.4013 -14.5045 -14.5045 -14.5039
    16.1597  16.3211  16.3211  16.6281  16.6281  16.6706  18.8249  18.8249
    22.3121  22.3121

     the Fermi energy is    18.5776 ev

!    total energy              =    -448.58235943 Ry
     estimated scf accuracy    <          1.6E-11 Ry
     smearing contrib. (-TS)   =       0.00000076 Ry
     internal energy E=F+TS    =    -448.58236019 Ry

     The total energy is F=E-TS. E is the sum of the following terms:
     one-electron contribution =    -145.25922279 Ry
     hartree contribution      =      89.57783694 Ry
     xc contribution           =     -52.96949636 Ry
     ewald contribution        =    -263.77663876 Ry
     one-center paw contrib.   =     -76.15483922 Ry

     convergence has been achieved in   6 iterations

     negative rho (up, down):  9.526E-04 0.000E+00

     Forces acting on atoms (cartesian axes, Ry/au):

     atom    1 type  1   force =     0.00000000    0.00000000    0.00000000
     atom    2 type  2   force =     0.00000000    0.00000000    0.00000000

     Total force =     0.000000     Total SCF correction =     0.000000


     Computing stress (Cartesian axis) and pressure


     negative rho (up, down):  9.526E-04 0.000E+00
          total   stress  (Ry/bohr**3)                   (kbar)     P=      134.72
   0.00091578   0.00000000   0.00000000          134.72        0.00        0.00
   0.00000000   0.00091578   0.00000000            0.00      134.72        0.00
   0.00000000   0.00000000   0.00091578            0.00        0.00      134.72

     Energy error            =      2.8E-07 Ry
     Gradient error          =      0.0E+00 Ry/Bohr
     Cell gradient error     =      3.9E-02 kbar

     bfgs converged in   4 scf cycles and   3 bfgs steps
     (criteria: energy <  1.0E-04 Ry, force <  1.0E-03 Ry/Bohr, cell <  5.0E-01 kbar)

     End of BFGS Geometry Optimization

     Final enthalpy           =    -448.4325178287 Ry

     File ./TiFe.bfgs deleted, as requested
Begin final coordinates
     new unit-cell volume =    163.66875 a.u.^3 (    24.25321 Ang^3 )
     density =      7.10083 g/cm^3

CELL_PARAMETERS (alat=  5.55330037)
   0.985002705   0.000000000   0.000000000
   0.000000000   0.985002705   0.000000000
   0.000000000   0.000000000   0.985002705

ATOMIC_POSITIONS (crystal)
Fe               0.5000000000        0.5000000000        0.5000000000
Ti               0.0000000000        0.0000000000        0.0000000000
End final coordinates



     Writing config-only to output data dir ./TiFe.save/ :
     XML data file

     Final scf calculation at the relaxed structure.
     The G-vectors are recalculated for the final unit cell
     Results may differ from those at the preceding step.

     Parallelization info
     --------------------
     sticks:   dense  smooth     PW     G-vecs:    dense   smooth      PW
     Min         518     148     43                24992     3818     599
     Max         519     149     44                24995     3821     601
     Sum        4149    1185    349               199949    30551    4801

     Using Slab Decomposition



     bravais-lattice index     =            0
     lattice parameter (alat)  =       5.5533  a.u.
     unit-cell volume          =     163.6687 (a.u.)^3
     number of atoms/cell      =            2
     number of atomic types    =            2
     number of electrons       =        28.00
     number of Kohn-Sham states=           18
     kinetic-energy cutoff     =     124.0000  Ry
     charge density cutoff     =    1736.0000  Ry
     scf convergence threshold =      1.0E-10
     mixing beta               =       0.7000
     number of iterations used =            8  plain     mixing
     press convergence thresh. =      5.0E-01
     Exchange-correlation= PBE
                           (   1   4   3   4   0   0   0)

     celldm(1)=   5.553300  celldm(2)=   0.000000  celldm(3)=   0.000000
     celldm(4)=   0.000000  celldm(5)=   0.000000  celldm(6)=   0.000000

     crystal axes: (cart. coord. in units of alat)
               a(1) = (   0.985003   0.000000   0.000000 )  
               a(2) = (   0.000000   0.985003   0.000000 )  
               a(3) = (   0.000000   0.000000   0.985003 )  

     reciprocal axes: (cart. coord. in units 2 pi/alat)
               b(1) = (  1.015226  0.000000  0.000000 )  
               b(2) = (  0.000000  1.015226  0.000000 )  
               b(3) = (  0.000000  0.000000  1.015226 )  


     PseudoPot. # 1 for Fe read from file:
     ../../pseudos/Fe.pbe-spn-kjpaw_psl.0.2.1.UPF
     MD5 check sum: e86618425769142926afa95317d90200
     Pseudo is Projector augmented-wave + core cor, Zval = 16.0
     Generated using "atomic" code by A. Dal Corso  v.5.0.99 svn rev. 10869
     Shape of augmentation charge: PSQ
     Using radial grid of 1191 points,  6 beta functions with: 
                l(1) =   0
                l(2) =   0
                l(3) =   1
                l(4) =   1
                l(5) =   2
                l(6) =   2
     Q(r) pseudized with 0 coefficients 


     PseudoPot. # 2 for Ti read from file:
     ../../pseudos/ti_pbe_v1.4.uspp.F.UPF
     MD5 check sum: 88a00a6731bd790ddea75d31a80cb452
     Pseudo is Ultrasoft + core correction, Zval = 12.0
     Generated by new atomic code, or converted to UPF format
     Using radial grid of  851 points,  6 beta functions with: 
                l(1) =   0
                l(2) =   0
                l(3) =   1
                l(4) =   1
                l(5) =   2
                l(6) =   2
     Q(r) pseudized with  6 coefficients,  rinner =    1.000   1.000   1.000
                                                       1.000   1.000

     atomic species   valence    mass     pseudopotential
     Fe               16.00    55.84500     Fe( 1.00)
     Ti               12.00    47.86700     Ti( 1.00)

     48 Sym. Ops., with inversion, found



   Cartesian axes

     site n.     atom                  positions (alat units)
         1        Fe     tau(   1) = (   0.4925014   0.4925014   0.4925014  )
         2        Ti     tau(   2) = (   0.0000000   0.0000000   0.0000000  )

     number of k points=    56  Marzari-Vanderbilt smearing, width (Ry)=  0.0050
                       cart. coord. in units 2pi/alat
        k(    1) = (   0.0000000   0.0000000   0.0000000), wk =   0.0015026
        k(    2) = (   0.0000000   0.0000000   0.0922932), wk =   0.0090158
        k(    3) = (   0.0000000   0.0000000   0.1845865), wk =   0.0090158
        k(    4) = (   0.0000000   0.0000000   0.2768797), wk =   0.0090158
        k(    5) = (   0.0000000   0.0000000   0.3691730), wk =   0.0090158
        k(    6) = (   0.0000000   0.0000000   0.4614662), wk =   0.0090158
        k(    7) = (   0.0000000   0.0922932   0.0922932), wk =   0.0180316
        k(    8) = (   0.0000000   0.0922932   0.1845865), wk =   0.0360631
        k(    9) = (   0.0000000   0.0922932   0.2768797), wk =   0.0360631
        k(   10) = (   0.0000000   0.0922932   0.3691730), wk =   0.0360631
        k(   11) = (   0.0000000   0.0922932   0.4614662), wk =   0.0360631
        k(   12) = (   0.0000000   0.1845865   0.1845865), wk =   0.0180316
        k(   13) = (   0.0000000   0.1845865   0.2768797), wk =   0.0360631
        k(   14) = (   0.0000000   0.1845865   0.3691730), wk =   0.0360631
        k(   15) = (   0.0000000   0.1845865   0.4614662), wk =   0.0360631
        k(   16) = (   0.0000000   0.2768797   0.2768797), wk =   0.0180316
        k(   17) = (   0.0000000   0.2768797   0.3691730), wk =   0.0360631
        k(   18) = (   0.0000000   0.2768797   0.4614662), wk =   0.0360631
        k(   19) = (   0.0000000   0.3691730   0.3691730), wk =   0.0180316
        k(   20) = (   0.0000000   0.3691730   0.4614662), wk =   0.0360631
        k(   21) = (   0.0000000   0.4614662   0.4614662), wk =   0.0180316
        k(   22) = (   0.0922932   0.0922932   0.0922932), wk =   0.0120210
        k(   23) = (   0.0922932   0.0922932   0.1845865), wk =   0.0360631
        k(   24) = (   0.0922932   0.0922932   0.2768797), wk =   0.0360631
        k(   25) = (   0.0922932   0.0922932   0.3691730), wk =   0.0360631
        k(   26) = (   0.0922932   0.0922932   0.4614662), wk =   0.0360631
        k(   27) = (   0.0922932   0.1845865   0.1845865), wk =   0.0360631
        k(   28) = (   0.0922932   0.1845865   0.2768797), wk =   0.0721262
        k(   29) = (   0.0922932   0.1845865   0.3691730), wk =   0.0721262
        k(   30) = (   0.0922932   0.1845865   0.4614662), wk =   0.0721262
        k(   31) = (   0.0922932   0.2768797   0.2768797), wk =   0.0360631
        k(   32) = (   0.0922932   0.2768797   0.3691730), wk =   0.0721262
        k(   33) = (   0.0922932   0.2768797   0.4614662), wk =   0.0721262
        k(   34) = (   0.0922932   0.3691730   0.3691730), wk =   0.0360631
        k(   35) = (   0.0922932   0.3691730   0.4614662), wk =   0.0721262
        k(   36) = (   0.0922932   0.4614662   0.4614662), wk =   0.0360631
        k(   37) = (   0.1845865   0.1845865   0.1845865), wk =   0.0120210
        k(   38) = (   0.1845865   0.1845865   0.2768797), wk =   0.0360631
        k(   39) = (   0.1845865   0.1845865   0.3691730), wk =   0.0360631
        k(   40) = (   0.1845865   0.1845865   0.4614662), wk =   0.0360631
        k(   41) = (   0.1845865   0.2768797   0.2768797), wk =   0.0360631
        k(   42) = (   0.1845865   0.2768797   0.3691730), wk =   0.0721262
        k(   43) = (   0.1845865   0.2768797   0.4614662), wk =   0.0721262
        k(   44) = (   0.1845865   0.3691730   0.3691730), wk =   0.0360631
        k(   45) = (   0.1845865   0.3691730   0.4614662), wk =   0.0721262
        k(   46) = (   0.1845865   0.4614662   0.4614662), wk =   0.0360631
        k(   47) = (   0.2768797   0.2768797   0.2768797), wk =   0.0120210
        k(   48) = (   0.2768797   0.2768797   0.3691730), wk =   0.0360631
        k(   49) = (   0.2768797   0.2768797   0.4614662), wk =   0.0360631
        k(   50) = (   0.2768797   0.3691730   0.3691730), wk =   0.0360631
        k(   51) = (   0.2768797   0.3691730   0.4614662), wk =   0.0721262
        k(   52) = (   0.2768797   0.4614662   0.4614662), wk =   0.0360631
        k(   53) = (   0.3691730   0.3691730   0.3691730), wk =   0.0120210
        k(   54) = (   0.3691730   0.3691730   0.4614662), wk =   0.0360631
        k(   55) = (   0.3691730   0.4614662   0.4614662), wk =   0.0360631
        k(   56) = (   0.4614662   0.4614662   0.4614662), wk =   0.0120210

     Dense  grid:   199949 G-vectors     FFT dimensions: (  75,  75,  75)

     Smooth grid:    30551 G-vectors     FFT dimensions: (  40,  40,  40)

     Estimated max dynamical RAM per process >     113.01 MB

     Estimated total dynamical RAM >     904.05 MB

     Check: negative core charge=   -0.000002

     Initial potential from superposition of free atoms

     starting charge      26.9995, renormalised to      28.0000

     negative rho (up, down):  1.326E-03 0.000E+00
     Starting wfcs are   23 randomized atomic wfcs
     Checking if some PAW data can be deallocated... 

     total cpu time spent up to now is       78.6 secs

     per-process dynamical memory:   145.7 Mb

     Self-consistent Calculation

     iteration #  1     ecut=   124.00 Ry     beta= 0.70
     Davidson diagonalization with overlap
     c_bands:  1 eigenvalues not converged
     c_bands:  1 eigenvalues not converged
     c_bands:  1 eigenvalues not converged
     c_bands:  1 eigenvalues not converged
     c_bands:  2 eigenvalues not converged
     ethr =  1.00E-06,  avg # of iterations = 16.3

     negative rho (up, down):  7.442E-05 0.000E+00

     total cpu time spent up to now is       82.1 secs

     total energy              =    -435.75208470 Ry
     estimated scf accuracy    <      16.44441042 Ry

     iteration #  2     ecut=   124.00 Ry     beta= 0.70
     Davidson diagonalization with overlap
     ethr =  1.00E-02,  avg # of iterations =  6.2

     negative rho (up, down):  7.826E-05 0.000E+00

     total cpu time spent up to now is       83.7 secs

     total energy              =    -448.58142684 Ry
     estimated scf accuracy    <      62.76016158 Ry

     iteration #  3     ecut=   124.00 Ry     beta= 0.70
     Davidson diagonalization with overlap
     ethr =  1.00E-02,  avg # of iterations =  3.1

     negative rho (up, down):  3.355E-04 0.000E+00

     total cpu time spent up to now is       84.8 secs

     total energy              =    -448.56050420 Ry
     estimated scf accuracy    <      16.06724950 Ry

     iteration #  4     ecut=   124.00 Ry     beta= 0.70
     Davidson diagonalization with overlap
     ethr =  1.00E-02,  avg # of iterations =  2.1

     negative rho (up, down):  3.337E-04 0.000E+00

     total cpu time spent up to now is       85.8 secs

     total energy              =    -449.09952953 Ry
     estimated scf accuracy    <       4.53443631 Ry

     iteration #  5     ecut=   124.00 Ry     beta= 0.70
     Davidson diagonalization with overlap
     ethr =  1.00E-02,  avg # of iterations =  1.1

     negative rho (up, down):  4.273E-04 0.000E+00

     total cpu time spent up to now is       86.7 secs

     total energy              =    -448.67104648 Ry
     estimated scf accuracy    <       4.27160877 Ry

     iteration #  6     ecut=   124.00 Ry     beta= 0.70
     Davidson diagonalization with overlap
     ethr =  1.00E-02,  avg # of iterations =  1.0

     negative rho (up, down):  4.436E-04 0.000E+00

     total cpu time spent up to now is       87.6 secs

     total energy              =    -448.71767206 Ry
     estimated scf accuracy    <       1.28582204 Ry

     iteration #  7     ecut=   124.00 Ry     beta= 0.70
     Davidson diagonalization with overlap
     ethr =  4.59E-03,  avg # of iterations =  1.1

     negative rho (up, down):  4.836E-04 0.000E+00

     total cpu time spent up to now is       88.4 secs

     total energy              =    -448.59085046 Ry
     estimated scf accuracy    <       0.77731135 Ry

     iteration #  8     ecut=   124.00 Ry     beta= 0.70
     Davidson diagonalization with overlap
     ethr =  2.78E-03,  avg # of iterations =  2.7

     negative rho (up, down):  8.997E-04 0.000E+00

     total cpu time spent up to now is       89.4 secs

     total energy              =    -448.78031170 Ry
     estimated scf accuracy    <       0.67725063 Ry

     iteration #  9     ecut=   124.00 Ry     beta= 0.70
     Davidson diagonalization with overlap
     ethr =  2.42E-03,  avg # of iterations =  1.1

     negative rho (up, down):  8.452E-04 0.000E+00

     total cpu time spent up to now is       90.2 secs

     total energy              =    -448.82636303 Ry
     estimated scf accuracy    <       0.68111936 Ry

     iteration # 10     ecut=   124.00 Ry     beta= 0.70
     Davidson diagonalization with overlap
     ethr =  2.42E-03,  avg # of iterations =  4.3

     negative rho (up, down):  6.665E-04 0.000E+00

     total cpu time spent up to now is       91.4 secs

     total energy              =    -448.70183336 Ry
     estimated scf accuracy    <      10.23152319 Ry

     iteration # 11     ecut=   124.00 Ry     beta= 0.70
     Davidson diagonalization with overlap
     ethr =  2.42E-03,  avg # of iterations =  3.3

     negative rho (up, down):  6.476E-04 0.000E+00

     total cpu time spent up to now is       92.4 secs

     total energy              =    -448.78575354 Ry
     estimated scf accuracy    <       2.14988441 Ry

     iteration # 12     ecut=   124.00 Ry     beta= 0.70
     Davidson diagonalization with overlap
     ethr =  2.42E-03,  avg # of iterations =  1.1

     negative rho (up, down):  7.672E-04 0.000E+00

     total cpu time spent up to now is       93.3 secs

     total energy              =    -448.95512530 Ry
     estimated scf accuracy    <       1.05199558 Ry

     iteration # 13     ecut=   124.00 Ry     beta= 0.70
     Davidson diagonalization with overlap
     ethr =  2.42E-03,  avg # of iterations =  1.0

     negative rho (up, down):  4.123E-04 0.000E+00

     total cpu time spent up to now is       94.1 secs

     total energy              =    -448.33358115 Ry
     estimated scf accuracy    <       2.72408051 Ry

     iteration # 14     ecut=   124.00 Ry     beta= 0.70
     Davidson diagonalization with overlap
     ethr =  2.42E-03,  avg # of iterations =  3.9

     negative rho (up, down):  3.694E-04 0.000E+00

     total cpu time spent up to now is       95.2 secs

     total energy              =    -448.61975730 Ry
     estimated scf accuracy    <       1.00833018 Ry

     iteration # 15     ecut=   124.00 Ry     beta= 0.70
     Davidson diagonalization with overlap
     ethr =  2.42E-03,  avg # of iterations =  1.0

     negative rho (up, down):  3.163E-04 0.000E+00

     total cpu time spent up to now is       96.0 secs

     total energy              =    -448.66790452 Ry
     estimated scf accuracy    <       0.34435720 Ry

     iteration # 16     ecut=   124.00 Ry     beta= 0.70
     Davidson diagonalization with overlap
     ethr =  1.23E-03,  avg # of iterations =  1.1

     negative rho (up, down):  3.334E-04 0.000E+00

     total cpu time spent up to now is       96.9 secs

     total energy              =    -448.66286787 Ry
     estimated scf accuracy    <       0.33481762 Ry

     iteration # 17     ecut=   124.00 Ry     beta= 0.70
     Davidson diagonalization with overlap
     ethr =  1.20E-03,  avg # of iterations =  1.0

     negative rho (up, down):  3.247E-04 0.000E+00

     total cpu time spent up to now is       97.8 secs

     total energy              =    -448.66902927 Ry
     estimated scf accuracy    <       0.28965377 Ry

     iteration # 18     ecut=   124.00 Ry     beta= 0.70
     Davidson diagonalization with overlap
     ethr =  1.03E-03,  avg # of iterations =  1.0

     negative rho (up, down):  3.567E-04 0.000E+00

     total cpu time spent up to now is       98.7 secs

     total energy              =    -448.65413601 Ry
     estimated scf accuracy    <       0.29621851 Ry

     iteration # 19     ecut=   124.00 Ry     beta= 0.70
     Davidson diagonalization with overlap
     ethr =  1.03E-03,  avg # of iterations =  1.0

     negative rho (up, down):  6.307E-04 0.000E+00

     total cpu time spent up to now is       99.5 secs

     WARNING: integrated charge=    27.97964953, expected=    28.00000000

     total energy              =    -448.57554718 Ry
     estimated scf accuracy    <       0.25015921 Ry

     iteration # 20     ecut=   124.00 Ry     beta= 0.70
     Davidson diagonalization with overlap
     ethr =  8.93E-04,  avg # of iterations =  2.0

     negative rho (up, down):  7.047E-04 0.000E+00

     total cpu time spent up to now is      100.5 secs

     WARNING: integrated charge=    27.98849509, expected=    28.00000000

     total energy              =    -448.58601937 Ry
     estimated scf accuracy    <       0.05345397 Ry

     iteration # 21     ecut=   124.00 Ry     beta= 0.70
     Davidson diagonalization with overlap
     ethr =  1.91E-04,  avg # of iterations =  2.5

     negative rho (up, down):  1.014E-03 0.000E+00

     total cpu time spent up to now is      101.4 secs

     WARNING: integrated charge=    28.04820055, expected=    28.00000000

 %%%%%%%%%%%%%%%%%%%%%%%%%%%%%%%%%%%%%%%%%%%%%%%%%%%%%%%%%%%%%%%%%%%%%%%%%%%%%%
     Error in routine electrons (1):
     charge is wrong
 %%%%%%%%%%%%%%%%%%%%%%%%%%%%%%%%%%%%%%%%%%%%%%%%%%%%%%%%%%%%%%%%%%%%%%%%%%%%%%

     stopping ...
