
     Program PWSCF v.7.4 starts on 25Oct2025 at 15:38:47 

     This program is part of the open-source Quantum ESPRESSO suite
     for quantum simulation of materials; please cite
         "P. Giannozzi et al., J. Phys.:Condens. Matter 21 395502 (2009);
         "P. Giannozzi et al., J. Phys.:Condens. Matter 29 465901 (2017);
         "P. Giannozzi et al., J. Chem. Phys. 152 154105 (2020);
          URL http://www.quantum-espresso.org", 
     in publications or presentations arising from this work. More details at
     http://www.quantum-espresso.org/quote

     Parallel version (MPI & OpenMP), running on       8 processor cores
     Number of MPI processes:                 8
     Threads/MPI process:                     1

     MPI processes distributed on     1 nodes
     215057 MiB available memory on the printing compute node when the environment starts

     Reading input from TiFe_relaxed7.in

     Current dimensions of program PWSCF are:
     Max number of different atomic species (ntypx) = 10
     Max number of k-points (npk) =  40000
     Max angular momentum in pseudopotentials (lmaxx) =  4

     File ./TiFe.update deleted, as requested
     file Fe.pbe-spn-kjpaw_psl.0.2.1.UPF: wavefunction(s)  3D renormalized

     IMPORTANT: XC functional enforced from input :
     Exchange-correlation= PBE
                           (   1   4   3   4   0   0   0)
     Any further DFT definition will be discarded
     Please, verify this is what you really want

     Message from routine setup:
     using ibrav=0 with symmetry is DISCOURAGED, use correct ibrav instead

     R & G space division:  proc/nbgrp/npool/nimage =       8
     Subspace diagonalization in iterative solution of the eigenvalue problem:
     a serial algorithm will be used


     Parallelization info
     --------------------
     sticks:   dense  smooth     PW     G-vecs:    dense   smooth      PW
     Min         532     151     43                26154     3989     617
     Max         533     152     44                26155     3993     620
     Sum        4257    1209    349               209233    31919    4945

     Using Slab Decomposition



     bravais-lattice index     =            0
     lattice parameter (alat)  =       5.5533  a.u.
     unit-cell volume          =     171.2590 (a.u.)^3
     number of atoms/cell      =            2
     number of atomic types    =            2
     number of electrons       =        28.00
     number of Kohn-Sham states=           18
     kinetic-energy cutoff     =     124.0000  Ry
     charge density cutoff     =    1736.0000  Ry
     scf convergence threshold =      1.0E-08
     mixing beta               =       0.7000
     number of iterations used =            8  plain     mixing
     energy convergence thresh.=      1.0E-04
     force convergence thresh. =      1.0E-03
     press convergence thresh. =      5.0E-01
     Exchange-correlation= PBE
                           (   1   4   3   4   0   0   0)
     nstep                     =           50


     celldm(1)=   5.553300  celldm(2)=   0.000000  celldm(3)=   0.000000
     celldm(4)=   0.000000  celldm(5)=   0.000000  celldm(6)=   0.000000

     crystal axes: (cart. coord. in units of alat)
               a(1) = (   1.000000   0.000000   0.000000 )  
               a(2) = (   0.000000   1.000000   0.000000 )  
               a(3) = (   0.000000   0.000000   1.000000 )  

     reciprocal axes: (cart. coord. in units 2 pi/alat)
               b(1) = (  1.000000  0.000000  0.000000 )  
               b(2) = (  0.000000  1.000000  0.000000 )  
               b(3) = (  0.000000  0.000000  1.000000 )  


     PseudoPot. # 1 for Fe read from file:
     ../../pseudos/Fe.pbe-spn-kjpaw_psl.0.2.1.UPF
     MD5 check sum: e86618425769142926afa95317d90200
     Pseudo is Projector augmented-wave + core cor, Zval = 16.0
     Generated using "atomic" code by A. Dal Corso  v.5.0.99 svn rev. 10869
     Shape of augmentation charge: PSQ
     Using radial grid of 1191 points,  6 beta functions with: 
                l(1) =   0
                l(2) =   0
                l(3) =   1
                l(4) =   1
                l(5) =   2
                l(6) =   2
     Q(r) pseudized with 0 coefficients 


     PseudoPot. # 2 for Ti read from file:
     ../../pseudos/ti_pbe_v1.4.uspp.F.UPF
     MD5 check sum: 88a00a6731bd790ddea75d31a80cb452
     Pseudo is Ultrasoft + core correction, Zval = 12.0
     Generated by new atomic code, or converted to UPF format
     Using radial grid of  851 points,  6 beta functions with: 
                l(1) =   0
                l(2) =   0
                l(3) =   1
                l(4) =   1
                l(5) =   2
                l(6) =   2
     Q(r) pseudized with  6 coefficients,  rinner =    1.000   1.000   1.000
                                                       1.000   1.000

     atomic species   valence    mass     pseudopotential
     Fe               16.00    55.84500     Fe( 1.00)
     Ti               12.00    47.86700     Ti( 1.00)

     48 Sym. Ops., with inversion, found



   Cartesian axes

     site n.     atom                  positions (alat units)
         1        Fe     tau(   1) = (   0.5000000   0.5000000   0.5000000  )
         2        Ti     tau(   2) = (   0.0000000   0.0000000   0.0000000  )

     number of k points=    56  Marzari-Vanderbilt smearing, width (Ry)=  0.0050
                       cart. coord. in units 2pi/alat
        k(    1) = (   0.0000000   0.0000000   0.0000000), wk =   0.0015026
        k(    2) = (   0.0000000   0.0000000   0.0909091), wk =   0.0090158
        k(    3) = (   0.0000000   0.0000000   0.1818182), wk =   0.0090158
        k(    4) = (   0.0000000   0.0000000   0.2727273), wk =   0.0090158
        k(    5) = (   0.0000000   0.0000000   0.3636364), wk =   0.0090158
        k(    6) = (   0.0000000   0.0000000   0.4545455), wk =   0.0090158
        k(    7) = (   0.0000000   0.0909091   0.0909091), wk =   0.0180316
        k(    8) = (   0.0000000   0.0909091   0.1818182), wk =   0.0360631
        k(    9) = (   0.0000000   0.0909091   0.2727273), wk =   0.0360631
        k(   10) = (   0.0000000   0.0909091   0.3636364), wk =   0.0360631
        k(   11) = (   0.0000000   0.0909091   0.4545455), wk =   0.0360631
        k(   12) = (   0.0000000   0.1818182   0.1818182), wk =   0.0180316
        k(   13) = (   0.0000000   0.1818182   0.2727273), wk =   0.0360631
        k(   14) = (   0.0000000   0.1818182   0.3636364), wk =   0.0360631
        k(   15) = (   0.0000000   0.1818182   0.4545455), wk =   0.0360631
        k(   16) = (   0.0000000   0.2727273   0.2727273), wk =   0.0180316
        k(   17) = (   0.0000000   0.2727273   0.3636364), wk =   0.0360631
        k(   18) = (   0.0000000   0.2727273   0.4545455), wk =   0.0360631
        k(   19) = (   0.0000000   0.3636364   0.3636364), wk =   0.0180316
        k(   20) = (   0.0000000   0.3636364   0.4545455), wk =   0.0360631
        k(   21) = (   0.0000000   0.4545455   0.4545455), wk =   0.0180316
        k(   22) = (   0.0909091   0.0909091   0.0909091), wk =   0.0120210
        k(   23) = (   0.0909091   0.0909091   0.1818182), wk =   0.0360631
        k(   24) = (   0.0909091   0.0909091   0.2727273), wk =   0.0360631
        k(   25) = (   0.0909091   0.0909091   0.3636364), wk =   0.0360631
        k(   26) = (   0.0909091   0.0909091   0.4545455), wk =   0.0360631
        k(   27) = (   0.0909091   0.1818182   0.1818182), wk =   0.0360631
        k(   28) = (   0.0909091   0.1818182   0.2727273), wk =   0.0721262
        k(   29) = (   0.0909091   0.1818182   0.3636364), wk =   0.0721262
        k(   30) = (   0.0909091   0.1818182   0.4545455), wk =   0.0721262
        k(   31) = (   0.0909091   0.2727273   0.2727273), wk =   0.0360631
        k(   32) = (   0.0909091   0.2727273   0.3636364), wk =   0.0721262
        k(   33) = (   0.0909091   0.2727273   0.4545455), wk =   0.0721262
        k(   34) = (   0.0909091   0.3636364   0.3636364), wk =   0.0360631
        k(   35) = (   0.0909091   0.3636364   0.4545455), wk =   0.0721262
        k(   36) = (   0.0909091   0.4545455   0.4545455), wk =   0.0360631
        k(   37) = (   0.1818182   0.1818182   0.1818182), wk =   0.0120210
        k(   38) = (   0.1818182   0.1818182   0.2727273), wk =   0.0360631
        k(   39) = (   0.1818182   0.1818182   0.3636364), wk =   0.0360631
        k(   40) = (   0.1818182   0.1818182   0.4545455), wk =   0.0360631
        k(   41) = (   0.1818182   0.2727273   0.2727273), wk =   0.0360631
        k(   42) = (   0.1818182   0.2727273   0.3636364), wk =   0.0721262
        k(   43) = (   0.1818182   0.2727273   0.4545455), wk =   0.0721262
        k(   44) = (   0.1818182   0.3636364   0.3636364), wk =   0.0360631
        k(   45) = (   0.1818182   0.3636364   0.4545455), wk =   0.0721262
        k(   46) = (   0.1818182   0.4545455   0.4545455), wk =   0.0360631
        k(   47) = (   0.2727273   0.2727273   0.2727273), wk =   0.0120210
        k(   48) = (   0.2727273   0.2727273   0.3636364), wk =   0.0360631
        k(   49) = (   0.2727273   0.2727273   0.4545455), wk =   0.0360631
        k(   50) = (   0.2727273   0.3636364   0.3636364), wk =   0.0360631
        k(   51) = (   0.2727273   0.3636364   0.4545455), wk =   0.0721262
        k(   52) = (   0.2727273   0.4545455   0.4545455), wk =   0.0360631
        k(   53) = (   0.3636364   0.3636364   0.3636364), wk =   0.0120210
        k(   54) = (   0.3636364   0.3636364   0.4545455), wk =   0.0360631
        k(   55) = (   0.3636364   0.4545455   0.4545455), wk =   0.0360631
        k(   56) = (   0.4545455   0.4545455   0.4545455), wk =   0.0120210

     Dense  grid:   209233 G-vectors     FFT dimensions: (  75,  75,  75)

     Smooth grid:    31919 G-vectors     FFT dimensions: (  40,  40,  40)

     Estimated max dynamical RAM per process >     117.03 MB

     Estimated total dynamical RAM >     936.25 MB

     Check: negative core charge=   -0.000002

     Initial potential from superposition of free atoms

     starting charge      26.9995, renormalised to      28.0000

     negative rho (up, down):  1.347E-03 0.000E+00
     Starting wfcs are   23 randomized atomic wfcs
     Checking if some PAW data can be deallocated... 

     total cpu time spent up to now is        1.4 secs

     per-process dynamical memory:   142.7 Mb

     Self-consistent Calculation

     iteration #  1     ecut=   124.00 Ry     beta= 0.70
     Davidson diagonalization with overlap
     ethr =  1.00E-02,  avg # of iterations =  2.1

     negative rho (up, down):  7.937E-05 0.000E+00

     total cpu time spent up to now is        2.5 secs

     total energy              =    -434.89047275 Ry
     estimated scf accuracy    <      17.46535633 Ry

     iteration #  2     ecut=   124.00 Ry     beta= 0.70
     Davidson diagonalization with overlap
     ethr =  1.00E-02,  avg # of iterations =  6.0

     negative rho (up, down):  2.353E-05 0.000E+00

     total cpu time spent up to now is        4.0 secs

     total energy              =    -448.51249463 Ry
     estimated scf accuracy    <      66.10195194 Ry

     iteration #  3     ecut=   124.00 Ry     beta= 0.70
     Davidson diagonalization with overlap
     ethr =  1.00E-02,  avg # of iterations =  3.1

     negative rho (up, down):  2.377E-04 0.000E+00

     total cpu time spent up to now is        5.2 secs

     total energy              =    -448.59203340 Ry
     estimated scf accuracy    <      16.77106202 Ry

     iteration #  4     ecut=   124.00 Ry     beta= 0.70
     Davidson diagonalization with overlap
     ethr =  1.00E-02,  avg # of iterations =  2.2

     negative rho (up, down):  2.766E-04 0.000E+00

     total cpu time spent up to now is        6.2 secs

     total energy              =    -449.11252552 Ry
     estimated scf accuracy    <       4.68111793 Ry

     iteration #  5     ecut=   124.00 Ry     beta= 0.70
     Davidson diagonalization with overlap
     ethr =  1.00E-02,  avg # of iterations =  1.0

     negative rho (up, down):  3.285E-04 0.000E+00

     total cpu time spent up to now is        7.1 secs

     total energy              =    -449.11683000 Ry
     estimated scf accuracy    <       4.27451567 Ry

     iteration #  6     ecut=   124.00 Ry     beta= 0.70
     Davidson diagonalization with overlap
     ethr =  1.00E-02,  avg # of iterations =  1.0

     negative rho (up, down):  1.118E-03 0.000E+00

     total cpu time spent up to now is        8.0 secs

     total energy              =    -447.89068457 Ry
     estimated scf accuracy    <       4.50163493 Ry

     iteration #  7     ecut=   124.00 Ry     beta= 0.70
     Davidson diagonalization with overlap
     ethr =  1.00E-02,  avg # of iterations =  3.4

     negative rho (up, down):  1.015E-03 0.000E+00

     total cpu time spent up to now is        9.0 secs

     total energy              =    -448.58840447 Ry
     estimated scf accuracy    <       3.89651472 Ry

     iteration #  8     ecut=   124.00 Ry     beta= 0.70
     Davidson diagonalization with overlap
     ethr =  1.00E-02,  avg # of iterations =  1.0

     negative rho (up, down):  7.976E-04 0.000E+00

     total cpu time spent up to now is        9.9 secs

     total energy              =    -448.43997417 Ry
     estimated scf accuracy    <       1.27715295 Ry

     iteration #  9     ecut=   124.00 Ry     beta= 0.70
     Davidson diagonalization with overlap
     ethr =  4.56E-03,  avg # of iterations =  1.9

     negative rho (up, down):  7.977E-04 0.000E+00

     total cpu time spent up to now is       10.9 secs

     total energy              =    -448.60539805 Ry
     estimated scf accuracy    <       0.26863249 Ry

     iteration # 10     ecut=   124.00 Ry     beta= 0.70
     Davidson diagonalization with overlap
     ethr =  9.59E-04,  avg # of iterations =  1.3

     negative rho (up, down):  8.075E-04 0.000E+00

     total cpu time spent up to now is       11.8 secs

     total energy              =    -448.61289738 Ry
     estimated scf accuracy    <       0.28159432 Ry

     iteration # 11     ecut=   124.00 Ry     beta= 0.70
     Davidson diagonalization with overlap
     ethr =  9.59E-04,  avg # of iterations =  1.0

     negative rho (up, down):  7.617E-04 0.000E+00

     total cpu time spent up to now is       12.7 secs

     total energy              =    -448.67957078 Ry
     estimated scf accuracy    <       0.34549008 Ry

     iteration # 12     ecut=   124.00 Ry     beta= 0.70
     Davidson diagonalization with overlap
     ethr =  9.59E-04,  avg # of iterations =  1.8

     negative rho (up, down):  7.932E-04 0.000E+00

     total cpu time spent up to now is       13.6 secs

     total energy              =    -448.62277485 Ry
     estimated scf accuracy    <       1.28404054 Ry

     iteration # 13     ecut=   124.00 Ry     beta= 0.70
     Davidson diagonalization with overlap
     ethr =  9.59E-04,  avg # of iterations =  1.2

     negative rho (up, down):  9.274E-04 0.000E+00

     total cpu time spent up to now is       14.5 secs

     total energy              =    -448.63537755 Ry
     estimated scf accuracy    <       0.58154385 Ry

     iteration # 14     ecut=   124.00 Ry     beta= 0.70
     Davidson diagonalization with overlap
     ethr =  9.59E-04,  avg # of iterations =  1.0

     negative rho (up, down):  1.025E-03 0.000E+00

     total cpu time spent up to now is       15.4 secs

     total energy              =    -448.61055071 Ry
     estimated scf accuracy    <       0.50368914 Ry

     iteration # 15     ecut=   124.00 Ry     beta= 0.70
     Davidson diagonalization with overlap
     ethr =  9.59E-04,  avg # of iterations =  1.0

     negative rho (up, down):  1.032E-03 0.000E+00

     total cpu time spent up to now is       16.3 secs

     total energy              =    -448.61143942 Ry
     estimated scf accuracy    <       0.31963621 Ry

     iteration # 16     ecut=   124.00 Ry     beta= 0.70
     Davidson diagonalization with overlap
     ethr =  9.59E-04,  avg # of iterations =  1.0

     negative rho (up, down):  1.077E-03 0.000E+00

     total cpu time spent up to now is       17.2 secs

     total energy              =    -448.59313187 Ry
     estimated scf accuracy    <       0.28283031 Ry

     iteration # 17     ecut=   124.00 Ry     beta= 0.70
     Davidson diagonalization with overlap
     ethr =  9.59E-04,  avg # of iterations =  1.0

     negative rho (up, down):  1.074E-03 0.000E+00

     total cpu time spent up to now is       18.1 secs

     total energy              =    -448.60188466 Ry
     estimated scf accuracy    <       0.07727334 Ry

     iteration # 18     ecut=   124.00 Ry     beta= 0.70
     Davidson diagonalization with overlap
     ethr =  2.76E-04,  avg # of iterations =  1.6

     negative rho (up, down):  9.925E-04 0.000E+00

     total cpu time spent up to now is       19.0 secs

     total energy              =    -448.58361173 Ry
     estimated scf accuracy    <       0.14906511 Ry

     iteration # 19     ecut=   124.00 Ry     beta= 0.70
     Davidson diagonalization with overlap
     ethr =  2.76E-04,  avg # of iterations =  1.1

     negative rho (up, down):  9.436E-04 0.000E+00

     total cpu time spent up to now is       19.9 secs

     total energy              =    -448.59412597 Ry
     estimated scf accuracy    <       0.04848613 Ry

     iteration # 20     ecut=   124.00 Ry     beta= 0.70
     Davidson diagonalization with overlap
     ethr =  1.73E-04,  avg # of iterations =  1.1

     negative rho (up, down):  1.023E-03 0.000E+00

     total cpu time spent up to now is       20.8 secs

     total energy              =    -448.57755581 Ry
     estimated scf accuracy    <       0.17402928 Ry

     iteration # 21     ecut=   124.00 Ry     beta= 0.70
     Davidson diagonalization with overlap
     ethr =  1.73E-04,  avg # of iterations =  2.1

     negative rho (up, down):  1.012E-03 0.000E+00

     total cpu time spent up to now is       21.7 secs

     total energy              =    -448.58650556 Ry
     estimated scf accuracy    <       0.00384583 Ry

     iteration # 22     ecut=   124.00 Ry     beta= 0.70
     Davidson diagonalization with overlap
     ethr =  1.37E-05,  avg # of iterations =  4.6

     negative rho (up, down):  1.004E-03 0.000E+00

     total cpu time spent up to now is       22.8 secs

     total energy              =    -448.58691254 Ry
     estimated scf accuracy    <       0.00198474 Ry

     iteration # 23     ecut=   124.00 Ry     beta= 0.70
     Davidson diagonalization with overlap
     ethr =  7.09E-06,  avg # of iterations =  1.5

     negative rho (up, down):  1.006E-03 0.000E+00

     total cpu time spent up to now is       23.7 secs

     total energy              =    -448.58700272 Ry
     estimated scf accuracy    <       0.00176934 Ry

     iteration # 24     ecut=   124.00 Ry     beta= 0.70
     Davidson diagonalization with overlap
     ethr =  6.32E-06,  avg # of iterations =  1.0

     negative rho (up, down):  9.532E-04 0.000E+00

     total cpu time spent up to now is       24.6 secs

     total energy              =    -448.58622431 Ry
     estimated scf accuracy    <       0.00189334 Ry

     iteration # 25     ecut=   124.00 Ry     beta= 0.70
     Davidson diagonalization with overlap
     ethr =  6.32E-06,  avg # of iterations =  2.5

     negative rho (up, down):  9.519E-04 0.000E+00

     total cpu time spent up to now is       25.7 secs

     total energy              =    -448.58664002 Ry
     estimated scf accuracy    <       0.00120792 Ry

     iteration # 26     ecut=   124.00 Ry     beta= 0.70
     Davidson diagonalization with overlap
     ethr =  4.31E-06,  avg # of iterations =  1.0

     negative rho (up, down):  9.350E-04 0.000E+00

     total cpu time spent up to now is       26.6 secs

     total energy              =    -448.58685540 Ry
     estimated scf accuracy    <       0.00115500 Ry

     iteration # 27     ecut=   124.00 Ry     beta= 0.70
     Davidson diagonalization with overlap
     ethr =  4.13E-06,  avg # of iterations =  2.0

     negative rho (up, down):  9.665E-04 0.000E+00

     total cpu time spent up to now is       27.5 secs

     total energy              =    -448.58628949 Ry
     estimated scf accuracy    <       0.00358740 Ry

     iteration # 28     ecut=   124.00 Ry     beta= 0.70
     Davidson diagonalization with overlap
     ethr =  4.13E-06,  avg # of iterations =  2.0

     negative rho (up, down):  9.722E-04 0.000E+00

     total cpu time spent up to now is       28.5 secs

     total energy              =    -448.58652077 Ry
     estimated scf accuracy    <       0.00004732 Ry

     iteration # 29     ecut=   124.00 Ry     beta= 0.70
     Davidson diagonalization with overlap
     ethr =  1.69E-07,  avg # of iterations =  4.7

     negative rho (up, down):  9.640E-04 0.000E+00

     total cpu time spent up to now is       29.7 secs

     total energy              =    -448.58653251 Ry
     estimated scf accuracy    <       0.00024122 Ry

     iteration # 30     ecut=   124.00 Ry     beta= 0.70
     Davidson diagonalization with overlap
     ethr =  1.69E-07,  avg # of iterations =  3.7

     negative rho (up, down):  9.643E-04 0.000E+00

     total cpu time spent up to now is       30.8 secs

     total energy              =    -448.58655214 Ry
     estimated scf accuracy    <       0.00000020 Ry

     iteration # 31     ecut=   124.00 Ry     beta= 0.70
     Davidson diagonalization with overlap
     ethr =  7.22E-10,  avg # of iterations =  5.8

     negative rho (up, down):  9.639E-04 0.000E+00

     total cpu time spent up to now is       32.2 secs

     total energy              =    -448.58655245 Ry
     estimated scf accuracy    <       0.00000110 Ry

     iteration # 32     ecut=   124.00 Ry     beta= 0.70
     Davidson diagonalization with overlap
     ethr =  7.22E-10,  avg # of iterations =  3.7

     negative rho (up, down):  9.638E-04 0.000E+00

     total cpu time spent up to now is       33.2 secs

     total energy              =    -448.58655251 Ry
     estimated scf accuracy    <       0.00000016 Ry

     iteration # 33     ecut=   124.00 Ry     beta= 0.70
     Davidson diagonalization with overlap
     ethr =  5.58E-10,  avg # of iterations =  2.1

     negative rho (up, down):  9.641E-04 0.000E+00

     total cpu time spent up to now is       34.1 secs

     total energy              =    -448.58655247 Ry
     estimated scf accuracy    <       0.00000034 Ry

     iteration # 34     ecut=   124.00 Ry     beta= 0.70
     Davidson diagonalization with overlap
     ethr =  5.58E-10,  avg # of iterations =  2.0

     negative rho (up, down):  9.642E-04 0.000E+00

     total cpu time spent up to now is       35.1 secs

     total energy              =    -448.58655249 Ry
     estimated scf accuracy    <       0.00000001 Ry

     iteration # 35     ecut=   124.00 Ry     beta= 0.70
     Davidson diagonalization with overlap
     ethr =  5.04E-11,  avg # of iterations =  4.2

     negative rho (up, down):  9.641E-04 0.000E+00

     total cpu time spent up to now is       36.2 secs

     total energy              =    -448.58655249 Ry
     estimated scf accuracy    <       0.00000003 Ry

     iteration # 36     ecut=   124.00 Ry     beta= 0.70
     Davidson diagonalization with overlap
     ethr =  5.04E-11,  avg # of iterations =  3.8

     negative rho (up, down):  9.641E-04 0.000E+00

     total cpu time spent up to now is       37.3 secs

     total energy              =    -448.58655249 Ry
     estimated scf accuracy    <       0.00000001 Ry

     iteration # 37     ecut=   124.00 Ry     beta= 0.70
     Davidson diagonalization with overlap
     ethr =  3.67E-11,  avg # of iterations =  1.1

     negative rho (up, down):  9.642E-04 0.000E+00

     total cpu time spent up to now is       38.2 secs

     End of self-consistent calculation

          k = 0.0000 0.0000 0.0000 (  3911 PWs)   bands (ev):

   -69.2103 -39.1519 -35.2713 -35.2713 -35.2713 -15.2461 -15.2461 -15.2461
    10.1528  13.8638  13.8638  16.6568  16.6568  16.6568  18.9982  18.9982
    20.9365  20.9365

          k = 0.0000 0.0000 0.0909 (  3947 PWs)   bands (ev):

   -69.2100 -39.1497 -35.2739 -35.2710 -35.2710 -15.2754 -15.2443 -15.2443
    10.3257  13.9470  13.9536  16.6441  16.6441  16.6947  18.8926  19.0379
    20.6857  20.6857

          k = 0.0000 0.0000 0.1818 (  3964 PWs)   bands (ev):

   -69.2093 -39.1440 -35.2806 -35.2699 -35.2699 -15.3533 -15.2397 -15.2397
    10.8272  14.1866  14.1905  16.6148  16.6148  16.8008  18.5874  19.1278
    20.1021  20.1021

          k = 0.0000 0.0000 0.2727 (  3988 PWs)   bands (ev):

   -69.2083 -39.1366 -35.2894 -35.2686 -35.2686 -15.4541 -15.2335 -15.2335
    11.6057  14.4523  14.5738  16.5899  16.5899  16.9516  18.1202  19.1616
    19.4563  19.4563

          k = 0.0000 0.0000 0.3636 (  4008 PWs)   bands (ev):

   -69.2074 -39.1297 -35.2974 -35.2673 -35.2673 -15.5456 -15.2278 -15.2278
    12.5660  14.5651  15.0485  16.5850  16.5850  17.1052  17.5652  18.9274
    18.9274  18.9715

          k = 0.0000 0.0000 0.4545 (  3992 PWs)   bands (ev):

   -69.2069 -39.1256 -35.3021 -35.2666 -35.2666 -15.5994 -15.2245 -15.2245
    13.5347  14.3044  15.4744  16.5939  16.5939  17.0902  17.2053  18.6282
    18.6282  18.6588

          k = 0.0000 0.0909 0.0909 (  3966 PWs)   bands (ev):

   -69.2097 -39.1475 -35.2748 -35.2724 -35.2706 -15.2765 -15.2702 -15.2425
    10.4951  14.0265  14.0436  16.5616  16.6235  16.7909  18.8774  19.0086
    20.4103  20.4352

          k = 0.0000 0.0909 0.1818 (  3978 PWs)   bands (ev):

   -69.2090 -39.1414 -35.2811 -35.2723 -35.2696 -15.3509 -15.2676 -15.2376
    10.9856  14.2440  14.2906  16.4813  16.5732  16.9084  18.6426  19.0871
    19.8666  19.9000

          k = 0.0000 0.0909 0.2727 (  3995 PWs)   bands (ev):

   -69.2080 -39.1335 -35.2900 -35.2716 -35.2682 -15.4506 -15.2606 -15.2312
    11.7434  14.5128  14.6445  16.4377  16.5167  16.9935  18.2447  19.0577
    19.3653  19.4001

          k = 0.0000 0.0909 0.3636 (  3991 PWs)   bands (ev):

   -69.2071 -39.1262 -35.2982 -35.2708 -35.2670 -15.5411 -15.2541 -15.2253
    12.6707  14.6170  15.0808  16.4435  16.4656  16.9997  17.7899  18.6459
    19.0664  19.2132

          k = 0.0000 0.0909 0.4545 (  3999 PWs)   bands (ev):

   -69.2066 -39.1219 -35.3030 -35.2704 -35.2663 -15.5944 -15.2503 -15.2217
    13.5943  14.3519  15.4692  16.3968  16.4805  16.9451  17.4633  18.3527
    18.9323  19.0197

          k = 0.0000 0.1818 0.1818 (  3972 PWs)   bands (ev):

   -69.2082 -39.1345 -35.2840 -35.2772 -35.2686 -15.3519 -15.3343 -15.2321
    11.4401  14.3900  14.5687  16.3070  16.4778  16.9857  18.6948  19.0458
    19.3496  19.5758

          k = 0.0000 0.1818 0.2727 (  4003 PWs)   bands (ev):

   -69.2073 -39.1253 -35.2920 -35.2794 -35.2673 -15.4413 -15.3326 -15.2250
    12.1275  14.5565  14.9462  16.1858  16.3868  16.9101  18.5208  18.8014
    19.2048  19.3971

          k = 0.0000 0.1818 0.3636 (  3997 PWs)   bands (ev):

   -69.2064 -39.1169 -35.3004 -35.2802 -35.2661 -15.5291 -15.3242 -15.2184
    12.9354  14.5943  15.3322  16.1499  16.3572  16.7002  18.2182  18.4617
    19.3302  19.4170

          k = 0.0000 0.1818 0.4545 (  3990 PWs)   bands (ev):

   -69.2059 -39.1119 -35.3055 -35.2806 -35.2654 -15.5809 -15.3192 -15.2144
    13.6841  14.3630  15.6125  16.2009  16.3901  16.4819  18.0480  18.2166
    19.3519  19.5140

          k = 0.0000 0.2727 0.2727 (  4000 PWs)   bands (ev):

   -69.2063 -39.1146 -35.2961 -35.2880 -35.2661 -15.4378 -15.4172 -15.2168
    12.6688  14.5348  15.3963  15.9775  16.3399  16.6425  18.5788  18.7502
    19.1052  19.5703

          k = 0.0000 0.2727 0.3636 (  3993 PWs)   bands (ev):

   -69.2054 -39.1047 -35.3035 -35.2923 -35.2649 -15.5135 -15.4149 -15.2093
    13.2265  14.4165  15.8407  15.8678  16.3180  16.4951  18.3958  18.7291
    19.2748  19.8464

          k = 0.0000 0.2727 0.4545 (  3996 PWs)   bands (ev):

   -69.2049 -39.0988 -35.3088 -35.2939 -35.2643 -15.5633 -15.4084 -15.2048
    13.6460  14.2282  15.8808  16.0550  16.0845  16.8466  18.1510  18.6844
    19.4869  20.0941

          k = 0.0000 0.3636 0.3636 (  4002 PWs)   bands (ev):

   -69.2046 -39.0934 -35.3073 -35.3025 -35.2639 -15.5042 -15.4923 -15.2009
    13.4198  14.2078  15.6811  15.9708  16.4456  16.8939  18.5222  19.0880
    19.1103  20.2512

          k = 0.0000 0.3636 0.4545 (  3999 PWs)   bands (ev):

   -69.2040 -39.0867 -35.3119 -35.3061 -35.2632 -15.5470 -15.4894 -15.1960
    13.5038  14.0682  15.6293  15.7309  16.8140  17.5390  18.2827  19.1482
    19.3229  20.5544

          k = 0.0000 0.4545 0.4545 (  3998 PWs)   bands (ev):

   -69.2035 -39.0794 -35.3139 -35.3132 -35.2626 -15.5381 -15.5364 -15.1907
    13.3945  13.9723  15.5084  15.5425  17.5106  17.9878  18.6669  18.8520
    19.4119  20.8261

          k = 0.0909 0.0909 0.0909 (  3959 PWs)   bands (ev):

   -69.2094 -39.1451 -35.2744 -35.2744 -35.2711 -15.2769 -15.2684 -15.2684
    10.6615  14.1185  14.1185  16.5391  16.5391  16.8681  18.9294  18.9294
    19.9928  20.6651

          k = 0.0909 0.0909 0.1818 (  3966 PWs)   bands (ev):

   -69.2087 -39.1388 -35.2813 -35.2733 -35.2710 -15.3483 -15.2672 -15.2636
    11.1426  14.3361  14.3554  16.4286  16.4796  16.9503  18.7011  19.0492
    19.5188  20.0788

          k = 0.0909 0.0909 0.2727 (  3992 PWs)   bands (ev):

   -69.2077 -39.1304 -35.2905 -35.2719 -35.2707 -15.4471 -15.2591 -15.2574
    11.8826  14.6168  14.6736  16.3700  16.3987  16.9454  18.3564  19.0005
    19.3236  19.4428

          k = 0.0909 0.0909 0.3636 (  3994 PWs)   bands (ev):

   -69.2068 -39.1228 -35.2988 -35.2707 -35.2704 -15.5368 -15.2516 -15.2516
    12.7810  14.7008  15.0813  16.2989  16.4005  16.8595  17.9712  18.7163
    18.9368  19.4202

          k = 0.0909 0.0909 0.4545 (  4007 PWs)   bands (ev):

   -69.2063 -39.1183 -35.3038 -35.2702 -35.2699 -15.5896 -15.2481 -15.2471
    13.6656  14.4197  15.4383  16.1745  16.5156  16.7699  17.6949  18.4315
    18.6597  19.5237

          k = 0.0909 0.1818 0.1818 (  3984 PWs)   bands (ev):

   -69.2080 -39.1316 -35.2836 -35.2780 -35.2712 -15.3487 -15.3325 -15.2595
    11.5926  14.4938  14.6188  16.2700  16.3702  16.9131  18.7644  19.0172
    19.2358  19.7948

          k = 0.0909 0.1818 0.2727 (  3994 PWs)   bands (ev):

   -69.2070 -39.1222 -35.2919 -35.2795 -35.2705 -15.4380 -15.3301 -15.2518
    12.2705  14.6756  14.9647  16.1421  16.2715  16.7315  18.6109  18.9228
    19.2407  19.4559

          k = 0.0909 0.1818 0.3636 (  4001 PWs)   bands (ev):

   -69.2061 -39.1136 -35.3007 -35.2800 -35.2697 -15.5253 -15.3217 -15.2447
    13.0616  14.7215  15.2859  16.0686  16.2634  16.5479  18.3724  18.5771
    19.1012  19.7199

          k = 0.0909 0.1818 0.4545 (  3993 PWs)   bands (ev):

   -69.2056 -39.1084 -35.3060 -35.2802 -35.2692 -15.5768 -15.3167 -15.2405
    13.7875  14.4740  15.5175  16.0018  16.3647  16.4909  18.1991  18.2872
    18.8991  20.1084

          k = 0.0909 0.2727 0.2727 (  3989 PWs)   bands (ev):

   -69.2061 -39.1114 -35.2957 -35.2883 -35.2695 -15.4340 -15.4153 -15.2435
    12.8158  14.6587  15.4058  15.9390  16.2101  16.4306  18.6963  18.9063
    19.0873  19.7047

          k = 0.0909 0.2727 0.3636 (  3985 PWs)   bands (ev):

   -69.2052 -39.1015 -35.3033 -35.2922 -35.2686 -15.5103 -15.4125 -15.2357
    13.3703  14.5419  15.7742  15.8302  16.2030  16.3600  18.4780  18.8193
    19.1582  20.1172

          k = 0.0909 0.2727 0.4545 (  4006 PWs)   bands (ev):

   -69.2046 -39.0955 -35.3089 -35.2935 -35.2680 -15.5600 -15.4061 -15.2311
    13.7756  14.3545  15.7972  15.8477  16.1550  16.7541  18.1884  18.7887
    19.0873  20.6002

          k = 0.0909 0.3636 0.3636 (  3992 PWs)   bands (ev):

   -69.2043 -39.0903 -35.3068 -35.3024 -35.2675 -15.5011 -15.4904 -15.2274
    13.5656  14.3325  15.6506  15.8817  16.4032  16.7209  18.4860  18.9868
    19.1887  20.5636

          k = 0.0909 0.3636 0.4545 (  4002 PWs)   bands (ev):

   -69.2038 -39.0836 -35.3116 -35.3057 -35.2669 -15.5446 -15.4873 -15.2224
    13.6401  14.1966  15.5970  15.6797  16.7391  17.3611  18.2404  18.9494
    19.2815  20.7958

          k = 0.0909 0.4545 0.4545 (  3993 PWs)   bands (ev):

   -69.2033 -39.0765 -35.3134 -35.3128 -35.2662 -15.5360 -15.5345 -15.2173
    13.5314  14.1009  15.4860  15.5157  17.4523  17.8446  18.4160  18.5135
    19.4899  21.0193

          k = 0.1818 0.1818 0.1818 (  3989 PWs)   bands (ev):

   -69.2072 -39.1239 -35.2825 -35.2825 -35.2757 -15.3447 -15.3275 -15.3275
    12.0266  14.7610  14.7610  16.1712  16.1712  16.6504  18.9328  18.9328
    19.2929  20.0374

          k = 0.1818 0.1818 0.2727 (  3992 PWs)   bands (ev):

   -69.2063 -39.1139 -35.2921 -35.2810 -35.2777 -15.4292 -15.3259 -15.3210
    12.6697  14.9702  15.0333  16.0341  16.0388  16.3368  18.8049  19.0078
    19.4273  19.5988

          k = 0.1818 0.1818 0.3636 (  3994 PWs)   bands (ev):

   -69.2054 -39.1046 -35.3016 -35.2796 -35.2790 -15.5151 -15.3151 -15.3150
    13.3929  15.0074  15.2036  15.8991  16.0682  16.2649  18.6704  18.7433
    18.9523  20.1600

          k = 0.1818 0.1818 0.4545 (  3986 PWs)   bands (ev):

   -69.2049 -39.0991 -35.3073 -35.2797 -35.2788 -15.5658 -15.3114 -15.3085
    14.0172  14.6821  15.3921  15.7788  16.1845  16.4450  18.3322  18.5953
    18.6806  20.5298

          k = 0.1818 0.2727 0.2727 (  3994 PWs)   bands (ev):

   -69.2053 -39.1029 -35.2944 -35.2893 -35.2787 -15.4238 -15.4102 -15.3144
    13.2274  14.9964  15.4273  15.8397  15.9189  15.9976  18.8252  19.0096
    19.3284  20.0777

          k = 0.1818 0.2727 0.3636 (  3988 PWs)   bands (ev):

   -69.2045 -39.0928 -35.3031 -35.2918 -35.2783 -15.5017 -15.4060 -15.3061
    13.7701  14.8706  15.5749  15.7253  15.9737  16.0870  18.5905  18.8382
    19.2207  20.3803

          k = 0.1818 0.2727 0.4545 (  3991 PWs)   bands (ev):

   -69.2039 -39.0868 -35.3091 -35.2925 -35.2779 -15.5513 -15.4000 -15.3011
    14.1253  14.6660  15.5488  15.6706  16.0602  16.5356  18.2319  18.6757
    19.1297  20.6014

          k = 0.1818 0.3636 0.3636 (  3990 PWs)   bands (ev):

   -69.2036 -39.0819 -35.3055 -35.3022 -35.2773 -15.4929 -15.4852 -15.2979
    13.9820  14.6576  15.5747  15.6896  16.2719  16.2956  18.4622  18.6969
    19.4850  20.5435

          k = 0.1818 0.3636 0.4545 (  3993 PWs)   bands (ev):

   -69.2031 -39.0754 -35.3108 -35.3045 -35.2767 -15.5379 -15.4817 -15.2930
    14.0272  14.5323  15.5200  15.5675  16.4915  16.9250  18.1794  18.5402
    19.5616  20.7853

          k = 0.1818 0.4545 0.4545 (  4002 PWs)   bands (ev):

   -69.2026 -39.0686 -35.3120 -35.3116 -35.2760 -15.5305 -15.5294 -15.2882
    13.9234  14.4434  15.4329  15.4545  17.1746  17.2811  18.0690  18.2503
    19.7506  21.0765

          k = 0.2727 0.2727 0.2727 (  3998 PWs)   bands (ev):

   -69.2044 -39.0917 -35.2928 -35.2928 -35.2886 -15.4134 -15.4035 -15.4035
    13.7990  15.4441  15.4441  15.5182  15.7193  15.7193  18.8337  18.8337
    19.7983  19.7983

          k = 0.2727 0.2727 0.3636 (  3992 PWs)   bands (ev):

   -69.2035 -39.0814 -35.3030 -35.2913 -35.2908 -15.4906 -15.3975 -15.3973
    14.2965  15.1356  15.4426  15.6207  15.7209  15.9354  18.5785  18.6239
    19.6455  20.2947

          k = 0.2727 0.2727 0.4545 (  3990 PWs)   bands (ev):

   -69.2030 -39.0752 -35.3095 -35.2915 -35.2904 -15.5398 -15.3936 -15.3902
    14.5097  14.9115  15.4302  15.5701  15.9004  16.3710  18.1751  18.4970
    19.5914  20.6352

          k = 0.2727 0.3636 0.3636 (  3988 PWs)   bands (ev):

   -69.2027 -39.0709 -35.3037 -35.3021 -35.2902 -15.4822 -15.4785 -15.3893
    14.5957  15.0027  15.4917  15.5872  15.8170  16.0595  18.4143  18.4173
    19.9496  20.4946

          k = 0.2727 0.3636 0.4545 (  3992 PWs)   bands (ev):

   -69.2021 -39.0646 -35.3099 -35.3030 -35.2896 -15.5292 -15.4743 -15.3844
    14.5794  14.9171  15.4521  15.5076  16.1032  16.4659  18.0772  18.3312
    20.0120  20.8206

          k = 0.2727 0.4545 0.4545 (  4000 PWs)   bands (ev):

   -69.2016 -39.0583 -35.3102 -35.3100 -35.2888 -15.5232 -15.5227 -15.3800
    14.5067  14.8769  15.3854  15.4135  16.6254  16.6525  17.9060  18.1706
    20.1897  21.1136

          k = 0.3636 0.3636 0.3636 (  3999 PWs)   bands (ev):

   -69.2018 -39.0607 -35.3021 -35.3021 -35.3018 -15.4725 -15.4722 -15.4722
    14.9948  15.3300  15.4470  15.4470  15.8145  15.8145  18.2411  18.2411
    20.5002  20.5002

          k = 0.3636 0.3636 0.4545 (  4008 PWs)   bands (ev):

   -69.2013 -39.0547 -35.3090 -35.3018 -35.3011 -15.5212 -15.4685 -15.4665
    14.9931  15.1653  15.4767  15.6074  15.7984  16.1604  17.9824  18.1639
    20.5129  20.9126

          k = 0.3636 0.4545 0.4545 (  3994 PWs)   bands (ev):

   -69.2008 -39.0488 -35.3085 -35.3085 -35.3006 -15.5165 -15.5165 -15.4635
    15.1008  15.2495  15.3888  15.4963  16.0924  16.1437  17.8651  18.0301
    20.7353  21.1430

          k = 0.4545 0.4545 0.4545 (  3972 PWs)   bands (ev):

   -69.2003 -39.0431 -35.3076 -35.3075 -35.3075 -15.5128 -15.5128 -15.5124
    15.3317  15.4752  15.4752  15.7775  15.7775  15.8004  17.8552  17.8552
    21.1597  21.1597

     the Fermi energy is    17.5936 ev

!    total energy              =    -448.58655249 Ry
     estimated scf accuracy    <          7.2E-10 Ry
     smearing contrib. (-TS)   =       0.00005038 Ry
     internal energy E=F+TS    =    -448.58660287 Ry

     The total energy is F=E-TS. E is the sum of the following terms:
     one-electron contribution =    -151.34228246 Ry
     hartree contribution      =      91.61721374 Ry
     xc contribution           =     -52.88698660 Ry
     ewald contribution        =    -259.82070277 Ry
     one-center paw contrib.   =     -76.15384478 Ry

     convergence has been achieved in  37 iterations

     negative rho (up, down):  9.642E-04 0.000E+00

     Forces acting on atoms (cartesian axes, Ry/au):

     atom    1 type  1   force =     0.00000000    0.00000000    0.00000000
     atom    2 type  2   force =     0.00000000    0.00000000    0.00000000

     Total force =     0.000000     Total SCF correction =     0.000000


     Computing stress (Cartesian axis) and pressure


     negative rho (up, down):  9.642E-04 0.000E+00
          total   stress  (Ry/bohr**3)                   (kbar)     P=       31.49
   0.00021405   0.00000000   0.00000000           31.49        0.00        0.00
   0.00000000   0.00021405   0.00000000            0.00       31.49        0.00
   0.00000000   0.00000000   0.00021405            0.00        0.00       31.49


     BFGS Geometry Optimization
     Energy error            =      1.4E-02 Ry
     Gradient error          =      0.0E+00 Ry/Bohr
     Cell gradient error     =      1.5E+02 kbar

     number of scf cycles    =   1
     number of bfgs steps    =   0

     enthalpy           new  =    -448.3768438877 Ry

     new trust radius        =       0.0661176358 bohr
     new conv_thr            =       0.0000000100 Ry

     new unit-cell volume =    158.60532 a.u.^3 (    23.50288 Ang^3 )
     density =      7.32752 g/cm^3

CELL_PARAMETERS (alat=  5.55330037)
   0.974738416   0.000000000   0.000000000
   0.000000000   0.974738416   0.000000000
   0.000000000   0.000000000   0.974738416

ATOMIC_POSITIONS (crystal)
Fe               0.5000000000        0.5000000000        0.5000000000
Ti               0.0000000000        0.0000000000        0.0000000000



     Writing config-only to output data dir ./TiFe.save/ :
     XML data file
     NEW-OLD atomic charge density approx. for the potential
     New effective cutoffs (rho, wfc): 1827.01  130.50

     Check: negative core charge=   -0.000002

     negative rho (up, down):  9.208E-04 0.000E+00

     total cpu time spent up to now is       40.1 secs

     per-process dynamical memory:   153.2 Mb

     Self-consistent Calculation

     iteration #  1     ecut=   124.00 Ry     beta= 0.70
     Davidson diagonalization with overlap
     ethr =  1.00E-06,  avg # of iterations =  8.3

     negative rho (up, down):  9.345E-04 0.000E+00

     total cpu time spent up to now is       42.0 secs

     total energy              =    -448.57567573 Ry
     estimated scf accuracy    <       0.00056902 Ry

     iteration #  2     ecut=   124.00 Ry     beta= 0.70
     Davidson diagonalization with overlap
     ethr =  2.03E-06,  avg # of iterations =  4.2

     negative rho (up, down):  9.409E-04 0.000E+00

     total cpu time spent up to now is       43.2 secs

     total energy              =    -448.57404865 Ry
     estimated scf accuracy    <       0.02752600 Ry

     iteration #  3     ecut=   124.00 Ry     beta= 0.70
     Davidson diagonalization with overlap
     ethr =  2.03E-06,  avg # of iterations =  4.5

     negative rho (up, down):  9.373E-04 0.000E+00

     total cpu time spent up to now is       44.4 secs

     total energy              =    -448.57626997 Ry
     estimated scf accuracy    <       0.00107305 Ry

     iteration #  4     ecut=   124.00 Ry     beta= 0.70
     Davidson diagonalization with overlap
     ethr =  2.03E-06,  avg # of iterations =  1.3

     negative rho (up, down):  9.412E-04 0.000E+00

     total cpu time spent up to now is       45.3 secs

     total energy              =    -448.57632380 Ry
     estimated scf accuracy    <       0.00013579 Ry

     iteration #  5     ecut=   124.00 Ry     beta= 0.70
     Davidson diagonalization with overlap
     ethr =  4.85E-07,  avg # of iterations =  3.2

     negative rho (up, down):  9.413E-04 0.000E+00

     total cpu time spent up to now is       46.3 secs

     total energy              =    -448.57633924 Ry
     estimated scf accuracy    <       0.00000707 Ry

     iteration #  6     ecut=   124.00 Ry     beta= 0.70
     Davidson diagonalization with overlap
     ethr =  2.52E-08,  avg # of iterations =  3.8

     negative rho (up, down):  9.413E-04 0.000E+00

     total cpu time spent up to now is       47.3 secs

     total energy              =    -448.57634066 Ry
     estimated scf accuracy    <       0.00000112 Ry

     iteration #  7     ecut=   124.00 Ry     beta= 0.70
     Davidson diagonalization with overlap
     ethr =  3.99E-09,  avg # of iterations =  3.8

     negative rho (up, down):  9.416E-04 0.000E+00

     total cpu time spent up to now is       48.4 secs

     total energy              =    -448.57634073 Ry
     estimated scf accuracy    <       0.00000114 Ry

     iteration #  8     ecut=   124.00 Ry     beta= 0.70
     Davidson diagonalization with overlap
     ethr =  3.99E-09,  avg # of iterations =  1.5

     negative rho (up, down):  9.417E-04 0.000E+00

     total cpu time spent up to now is       49.3 secs

     total energy              =    -448.57634071 Ry
     estimated scf accuracy    <       0.00000024 Ry

     iteration #  9     ecut=   124.00 Ry     beta= 0.70
     Davidson diagonalization with overlap
     ethr =  8.73E-10,  avg # of iterations =  3.2

     negative rho (up, down):  9.416E-04 0.000E+00

     total cpu time spent up to now is       50.3 secs

     total energy              =    -448.57634076 Ry
     estimated scf accuracy    <       0.00000056 Ry

     iteration # 10     ecut=   124.00 Ry     beta= 0.70
     Davidson diagonalization with overlap
     ethr =  8.73E-10,  avg # of iterations =  1.0

     negative rho (up, down):  9.416E-04 0.000E+00

     total cpu time spent up to now is       51.2 secs

     total energy              =    -448.57634073 Ry
     estimated scf accuracy    <       0.00000040 Ry

     iteration # 11     ecut=   124.00 Ry     beta= 0.70
     Davidson diagonalization with overlap
     ethr =  8.73E-10,  avg # of iterations =  1.2

     negative rho (up, down):  9.416E-04 0.000E+00

     total cpu time spent up to now is       52.1 secs

     total energy              =    -448.57634074 Ry
     estimated scf accuracy    <       0.00000013 Ry

     iteration # 12     ecut=   124.00 Ry     beta= 0.70
     Davidson diagonalization with overlap
     ethr =  4.63E-10,  avg # of iterations =  1.0

     negative rho (up, down):  9.416E-04 0.000E+00

     total cpu time spent up to now is       53.0 secs

     total energy              =    -448.57634074 Ry
     estimated scf accuracy    <       0.00000017 Ry

     iteration # 13     ecut=   124.00 Ry     beta= 0.70
     Davidson diagonalization with overlap
     ethr =  4.63E-10,  avg # of iterations =  1.0

     negative rho (up, down):  9.416E-04 0.000E+00

     total cpu time spent up to now is       53.9 secs

     total energy              =    -448.57634073 Ry
     estimated scf accuracy    <       0.00000016 Ry

     iteration # 14     ecut=   124.00 Ry     beta= 0.70
     Davidson diagonalization with overlap
     ethr =  4.63E-10,  avg # of iterations =  1.0

     negative rho (up, down):  9.416E-04 0.000E+00

     total cpu time spent up to now is       54.8 secs

     total energy              =    -448.57634075 Ry
     estimated scf accuracy    <       0.00000014 Ry

     iteration # 15     ecut=   124.00 Ry     beta= 0.70
     Davidson diagonalization with overlap
     ethr =  4.63E-10,  avg # of iterations =  1.0

     negative rho (up, down):  9.416E-04 0.000E+00

     total cpu time spent up to now is       55.7 secs

     total energy              =    -448.57634064 Ry
     estimated scf accuracy    <       0.00000017 Ry

     iteration # 16     ecut=   124.00 Ry     beta= 0.70
     Davidson diagonalization with overlap
     ethr =  4.63E-10,  avg # of iterations =  2.0

     negative rho (up, down):  9.416E-04 0.000E+00

     total cpu time spent up to now is       56.7 secs

     End of self-consistent calculation

          k = 0.0000 0.0000 0.0000 (  3911 PWs)   bands (ev):

   -67.6368 -37.3681 -33.7017 -33.7017 -33.7017 -13.4356 -13.4356 -13.4356
    11.5507  15.0596  15.0596  18.1815  18.1815  18.1815  20.7497  20.7497
    22.9038  22.9038

          k = 0.0000 0.0000 0.0933 (  3947 PWs)   bands (ev):

   -67.6364 -37.3656 -33.7047 -33.7012 -33.7012 -13.4740 -13.4335 -13.4335
    11.7365  15.1502  15.1660  18.1679  18.1679  18.2234  20.6290  20.7962
    22.6224  22.6224

          k = 0.0000 0.0000 0.1865 (  3964 PWs)   bands (ev):

   -67.6353 -37.3588 -33.7126 -33.6997 -33.6997 -13.5762 -13.4278 -13.4278
    12.2732  15.4156  15.4460  18.1373  18.1373  18.3410  20.2811  20.9051
    21.9703  21.9703

          k = 0.0000 0.0000 0.2798 (  3988 PWs)   bands (ev):

   -67.6339 -37.3500 -33.7228 -33.6978 -33.6978 -13.7080 -13.4204 -13.4204
    13.0986  15.7819  15.8346  18.1133  18.1133  18.5084  19.7506  20.9659
    21.2504  21.2504

          k = 0.0000 0.0000 0.3731 (  4008 PWs)   bands (ev):

   -67.6326 -37.3419 -33.7320 -33.6960 -33.6960 -13.8272 -13.4135 -13.4135
    14.1007  15.9791  16.3562  18.1131  18.1131  18.6794  19.1233  20.6600
    20.6600  20.7964

          k = 0.0000 0.0000 0.4663 (  3992 PWs)   bands (ev):

   -67.6318 -37.3371 -33.7374 -33.6949 -33.6949 -13.8972 -13.4094 -13.4094
    15.0807  15.8016  16.8287  18.1276  18.1276  18.5867  18.7912  20.3247
    20.3247  20.4785

          k = 0.0000 0.0933 0.0933 (  3966 PWs)   bands (ev):

   -67.6360 -37.3628 -33.7065 -33.7022 -33.7006 -13.4761 -13.4669 -13.4312
    11.9181  15.2412  15.2679  18.0742  18.1457  18.3330  20.6123  20.7628
    22.3125  22.3428

          k = 0.0000 0.0933 0.1865 (  3978 PWs)   bands (ev):

   -67.6349 -37.3554 -33.7139 -33.7021 -33.6992 -13.5731 -13.4642 -13.4252
    12.4413  15.4856  15.5550  17.9844  18.0922  18.4660  20.3445  20.8582
    21.7101  21.7415

          k = 0.0000 0.0933 0.2798 (  3995 PWs)   bands (ev):

   -67.6335 -37.3457 -33.7242 -33.7013 -33.6973 -13.7033 -13.4555 -13.4174
    13.2413  15.8252  15.9404  17.9380  18.0335  18.5617  19.8924  20.8436
    21.1569  21.1842

          k = 0.0000 0.0933 0.3731 (  3991 PWs)   bands (ev):

   -67.6322 -37.3368 -33.7336 -33.7006 -33.6955 -13.8211 -13.4475 -13.4101
    14.2031  16.0250  16.4053  17.9494  17.9798  18.5659  19.3804  20.3846
    20.8142  21.0274

          k = 0.0000 0.0933 0.4663 (  3999 PWs)   bands (ev):

   -67.6314 -37.3316 -33.7392 -33.7001 -33.6945 -13.8902 -13.4427 -13.4058
    15.1302  15.8410  16.8301  17.9010  17.9975  18.4983  19.0197  20.0693
    20.6679  20.8329

          k = 0.0000 0.1865 0.1865 (  3972 PWs)   bands (ev):

   -67.6338 -37.3463 -33.7191 -33.7069 -33.6978 -13.5758 -13.5499 -13.4183
    12.9200  15.6532  15.8728  17.7879  17.9912  18.5563  20.4064  20.8101
    21.1405  21.3768

          k = 0.0000 0.1865 0.2798 (  4003 PWs)   bands (ev):

   -67.6324 -37.3343 -33.7286 -33.7106 -33.6959 -13.6909 -13.5487 -13.4093
    13.6327  15.8573  16.3041  17.6529  17.8999  18.4721  20.2047  20.5502
    20.9905  21.1787

          k = 0.0000 0.1865 0.3731 (  3997 PWs)   bands (ev):

   -67.6311 -37.3233 -33.7382 -33.7129 -33.6942 -13.8045 -13.5379 -13.4010
    14.4470  15.9569  16.7334  17.6153  17.8805  18.2336  19.8641  20.1825
    21.1543  21.2060

          k = 0.0000 0.1865 0.4663 (  3990 PWs)   bands (ev):

   -67.6303 -37.3168 -33.7440 -33.7141 -33.6932 -13.8715 -13.5313 -13.3960
    15.1646  15.8000  17.0313  17.6781  17.9351  17.9826  19.6774  19.9185
    21.2056  21.3190

          k = 0.0000 0.2798 0.2798 (  4000 PWs)   bands (ev):

   -67.6310 -37.3194 -33.7358 -33.7211 -33.6942 -13.6869 -13.6567 -13.3987
    14.1634  15.8477  16.8165  17.4195  17.8722  18.1715  20.3072  20.4599
    20.8898  21.3752

          k = 0.0000 0.2798 0.3731 (  3993 PWs)   bands (ev):

   -67.6297 -37.3056 -33.7444 -33.7287 -33.6926 -13.7830 -13.6545 -13.3889
    14.6746  15.7546  17.2981  17.3188  17.8058  18.0785  20.1131  20.4411
    21.0934  21.6874

          k = 0.0000 0.2798 0.4663 (  3996 PWs)   bands (ev):

   -67.6289 -37.2974 -33.7504 -33.7324 -33.6916 -13.8469 -13.6457 -13.3831
    15.0245  15.6071  17.3156  17.5084  17.5963  18.4922  19.8549  20.3842
    21.3607  21.9675

          k = 0.0000 0.3731 0.3731 (  4002 PWs)   bands (ev):

   -67.6284 -37.2892 -33.7511 -33.7424 -33.6911 -13.7704 -13.7529 -13.3779
    14.7794  15.5423  17.0897  17.4167  17.9953  18.5549  20.2740  20.8385
    20.9243  22.1417

          k = 0.0000 0.3731 0.4663 (  3999 PWs)   bands (ev):

   -67.6276 -37.2794 -33.7564 -33.7492 -33.6902 -13.8242 -13.7494 -13.3713
    14.8005  15.4105  17.0332  17.1473  18.4118  19.2623  20.0228  20.9158
    21.1797  22.4827

          k = 0.0000 0.4663 0.4663 (  3998 PWs)   bands (ev):

   -67.6269 -37.2686 -33.7602 -33.7590 -33.6893 -13.8118 -13.8094 -13.3642
    14.6517  15.2959  16.8982  16.9366  19.1586  19.7139  20.4928  20.6984
    21.2074  22.7876

          k = 0.0933 0.0933 0.0933 (  3959 PWs)   bands (ev):

   -67.6356 -37.3598 -33.7059 -33.7059 -33.7001 -13.4772 -13.4647 -13.4647
    12.0962  15.3493  15.3493  18.0496  18.0496  18.4222  20.6723  20.6723
    21.8468  22.5998

          k = 0.0933 0.0933 0.1865 (  3966 PWs)   bands (ev):

   -67.6345 -37.3519 -33.7144 -33.7044 -33.6998 -13.5699 -13.4639 -13.4589
    12.6080  15.5866  15.6320  17.9261  17.9848  18.5174  20.4116  20.8146
    21.3187  21.9458

          k = 0.0933 0.0933 0.2798 (  3992 PWs)   bands (ev):

   -67.6331 -37.3414 -33.7253 -33.7024 -33.6998 -13.6986 -13.4536 -13.4513
    13.3865  15.9555  15.9608  17.8643  17.8973  18.5122  20.0193  20.7743
    21.1111  21.2386

          k = 0.0933 0.0933 0.3731 (  3994 PWs)   bands (ev):

   -67.6318 -37.3319 -33.7350 -33.7005 -33.6999 -13.8152 -13.4444 -13.4439
    14.3136  16.1222  16.4026  17.7886  17.9052  18.4113  19.5844  20.4798
    20.6756  21.2382

          k = 0.0933 0.0933 0.4663 (  4007 PWs)   bands (ev):

   -67.6310 -37.3262 -33.7407 -33.6999 -33.6994 -13.8836 -13.4402 -13.4382
    15.1964  15.9095  16.7948  17.6509  18.0433  18.3067  19.2764  20.1870
    20.3660  21.3657

          k = 0.0933 0.1865 0.1865 (  3984 PWs)   bands (ev):

   -67.6334 -37.3424 -33.7185 -33.7090 -33.7002 -13.5714 -13.5476 -13.4539
    13.0821  15.7722  15.9273  17.7475  17.8664  18.4799  20.4861  20.7774
    21.0087  21.6288

          k = 0.0933 0.1865 0.2798 (  3994 PWs)   bands (ev):

   -67.6320 -37.3300 -33.7286 -33.7112 -33.6999 -13.6864 -13.5456 -13.4442
    13.7847  15.9900  16.3255  17.6060  17.7653  18.2748  20.3090  20.6881
    21.0252  21.2511

          k = 0.0933 0.1865 0.3731 (  4001 PWs)   bands (ev):

   -67.6307 -37.3185 -33.7388 -33.7127 -33.6991 -13.7993 -13.5347 -13.4351
    14.5803  16.1000  16.6787  17.5298  17.7683  18.0656  20.0346  20.3162
    20.8824  21.5624

          k = 0.0933 0.1865 0.4663 (  3993 PWs)   bands (ev):

   -67.6299 -37.3118 -33.7450 -33.7136 -33.6984 -13.8659 -13.5281 -13.4297
    15.2745  15.9230  16.9129  17.4691  17.8708  18.0274  19.8450  20.0021
    20.6642  22.0087

          k = 0.0933 0.2798 0.2798 (  3989 PWs)   bands (ev):

   -67.6306 -37.3149 -33.7351 -33.7219 -33.6988 -13.6817 -13.6544 -13.4333
    14.3228  15.9861  16.8261  17.3788  17.7189  17.9372  20.4386  20.6303
    20.8715  21.5343

          k = 0.0933 0.2798 0.3731 (  3985 PWs)   bands (ev):

   -67.6293 -37.3010 -33.7442 -33.7288 -33.6975 -13.7788 -13.6515 -13.4232
    14.8306  15.8938  17.2192  17.2794  17.6863  17.9192  20.2055  20.5406
    20.9562  22.0013

          k = 0.0933 0.2798 0.4663 (  4006 PWs)   bands (ev):

   -67.6285 -37.2927 -33.7507 -33.7319 -33.6967 -13.8426 -13.6429 -13.4172
    15.1640  15.7456  17.2230  17.2952  17.6688  18.3800  19.8991  20.4993
    20.8900  22.5378

          k = 0.0933 0.3731 0.3731 (  3992 PWs)   bands (ev):

   -67.6280 -37.2848 -33.7503 -33.7425 -33.6961 -13.7664 -13.7507 -13.4123
    14.9362  15.6811  17.0576  17.3197  17.9505  18.3608  20.2219  20.7889
    20.9483  22.4996

          k = 0.0933 0.3731 0.4663 (  4002 PWs)   bands (ev):

   -67.6272 -37.2751 -33.7560 -33.7486 -33.6952 -13.8212 -13.7469 -13.4058
    14.9471  15.5524  16.9996  17.0929  18.3355  19.0669  19.9657  20.7563
    21.0544  22.7449

          k = 0.0933 0.4663 0.4663 (  3993 PWs)   bands (ev):

   -67.6265 -37.2646 -33.7594 -33.7583 -33.6943 -13.8094 -13.8072 -13.3989
    14.7996  15.4386  16.8758  16.9095  19.1022  19.5808  20.1778  20.3080
    21.2908  22.9894

          k = 0.1865 0.1865 0.1865 (  3989 PWs)   bands (ev):

   -67.6324 -37.3319 -33.7169 -33.7169 -33.7046 -13.5664 -13.5417 -13.5417
    13.5396  16.0818  16.0818  17.6403  17.6403  18.1902  20.6809  20.6809
    21.0796  21.9003

          k = 0.1865 0.1865 0.2798 (  3992 PWs)   bands (ev):

   -67.6309 -37.3182 -33.7292 -33.7147 -33.7083 -13.6745 -13.5401 -13.5338
    14.2036  16.3090  16.4149  17.4916  17.4982  17.8377  20.5341  20.7863
    21.2212  21.4259

          k = 0.1865 0.1865 0.3731 (  3994 PWs)   bands (ev):

   -67.6296 -37.3056 -33.7408 -33.7127 -33.7112 -13.7855 -13.5266 -13.5254
    14.9202  16.4399  16.5608  17.3516  17.5440  17.7561  20.3779  20.5186
    20.6936  22.0567

          k = 0.1865 0.1865 0.4663 (  3986 PWs)   bands (ev):

   -67.6289 -37.2981 -33.7477 -33.7129 -33.7115 -13.8508 -13.5223 -13.5165
    15.5016  16.1406  16.7582  17.2312  17.6843  17.9837  20.0777  20.2838
    20.3977  22.4479

          k = 0.1865 0.2798 0.2798 (  3994 PWs)   bands (ev):

   -67.6295 -37.3028 -33.7333 -33.7243 -33.7108 -13.6678 -13.6483 -13.5253
    14.7666  16.3622  16.8462  17.2760  17.3741  17.4651  20.5787  20.7896
    21.0993  21.9666

          k = 0.1865 0.2798 0.3731 (  3988 PWs)   bands (ev):

   -67.6282 -37.2886 -33.7439 -33.7287 -33.7108 -13.7674 -13.6433 -13.5145
    15.2630  16.2570  16.9930  17.1604  17.4654  17.5840  20.3306  20.6060
    20.9782  22.2744

          k = 0.1865 0.2798 0.4663 (  3991 PWs)   bands (ev):

   -67.6275 -37.2802 -33.7515 -33.7304 -33.7104 -13.8311 -13.6354 -13.5079
    15.5386  16.0819  16.9454  17.1123  17.5805  18.1165  19.9550  20.4185
    20.8738  22.5259

          k = 0.1865 0.3731 0.3731 (  3990 PWs)   bands (ev):

   -67.6270 -37.2729 -33.7484 -33.7426 -33.7095 -13.7558 -13.7447 -13.5039
    15.3829  16.0415  16.9785  17.1145  17.8099  17.8771  20.1873  20.4650
    21.2744  22.4541

          k = 0.1865 0.3731 0.4663 (  3993 PWs)   bands (ev):

   -67.6262 -37.2636 -33.7550 -33.7469 -33.7087 -13.8130 -13.7403 -13.4975
    15.3623  15.9207  16.9198  16.9793  18.0774  18.5710  19.8942  20.2833
    21.3611  22.7264

          k = 0.1865 0.4663 0.4663 (  4002 PWs)   bands (ev):

   -67.6254 -37.2537 -33.7574 -33.7565 -33.7077 -13.8029 -13.8013 -13.4912
    15.2230  15.8179  16.8242  16.8498  18.8209  18.9710  19.7807  19.9651
    21.5768  23.0483

          k = 0.2798 0.2798 0.2798 (  3998 PWs)   bands (ev):

   -67.6281 -37.2870 -33.7309 -33.7309 -33.7231 -13.6534 -13.6404 -13.6404
    15.3671  16.8553  16.8553  16.9351  17.1572  17.1572  20.5968  20.5968
    21.6201  21.6201

          k = 0.2798 0.2798 0.3731 (  3992 PWs)   bands (ev):

   -67.6269 -37.2724 -33.7440 -33.7287 -33.7274 -13.7528 -13.6330 -13.6318
    15.8164  16.5397  16.8377  17.0689  17.1809  17.4189  20.3280  20.3610
    21.4478  22.1757

          k = 0.2798 0.2798 0.4663 (  3990 PWs)   bands (ev):

   -67.6261 -37.2637 -33.7526 -33.7291 -33.7274 -13.8161 -13.6287 -13.6218
    15.9278  16.3288  16.8129  17.0271  17.4217  17.9248  19.8923  20.2175
    21.3870  22.5610

          k = 0.2798 0.3731 0.3731 (  3988 PWs)   bands (ev):

   -67.6256 -37.2574 -33.7458 -33.7427 -33.7271 -13.7419 -13.7369 -13.6222
    16.0312  16.4179  16.8952  17.0286  17.3276  17.5770  20.1347  20.1479
    21.7891  22.3969

          k = 0.2798 0.3731 0.4663 (  3992 PWs)   bands (ev):

   -67.6248 -37.2484 -33.7538 -33.7447 -33.7263 -13.8023 -13.7316 -13.6160
    15.9475  16.3311  16.8518  16.9427  17.6598  18.0433  19.7774  20.0427
    21.8595  22.7637

          k = 0.2798 0.4663 0.4663 (  4000 PWs)   bands (ev):

   -67.6241 -37.2393 -33.7547 -33.7542 -33.7252 -13.7944 -13.7937 -13.6105
    15.8511  16.2931  16.7837  16.8213  18.2338  18.2504  19.5821  19.8730
    22.0615  23.0895

          k = 0.3731 0.3731 0.3731 (  3999 PWs)   bands (ev):

   -67.6243 -37.2430 -33.7434 -33.7434 -33.7427 -13.7297 -13.7297 -13.7287
    16.3652  16.8576  16.8576  16.8954  17.3012  17.3012  19.9473  19.9473
    22.4027  22.4027

          k = 0.3731 0.3731 0.4663 (  4008 PWs)   bands (ev):

   -67.6236 -37.2345 -33.7527 -33.7431 -33.7420 -13.7924 -13.7254 -13.7214
    16.3664  16.5842  16.9054  17.0603  17.3413  17.6916  19.6664  19.8595
    22.4170  22.8657

          k = 0.3731 0.4663 0.4663 (  3994 PWs)   bands (ev):

   -67.6228 -37.2261 -33.7522 -33.7521 -33.7412 -13.7866 -13.7866 -13.7186
    16.4862  16.6868  16.8049  16.9473  17.6293  17.6748  19.5335  19.7153
    22.6671  23.1227

          k = 0.4663 0.4663 0.4663 (  3972 PWs)   bands (ev):

   -67.6221 -37.2182 -33.7509 -33.7507 -33.7507 -13.7824 -13.7824 -13.7816
    16.7547  16.9293  16.9293  17.2424  17.2424  17.2993  19.5221  19.5221
    23.1418  23.1418

     the Fermi energy is    19.2762 ev

!    total energy              =    -448.57634067 Ry
     estimated scf accuracy    <          1.1E-09 Ry
     smearing contrib. (-TS)   =      -0.00003888 Ry
     internal energy E=F+TS    =    -448.57630179 Ry

     The total energy is F=E-TS. E is the sum of the following terms:
     one-electron contribution =    -141.01156374 Ry
     hartree contribution      =      88.17569570 Ry
     xc contribution           =     -53.03069407 Ry
     ewald contribution        =    -266.55428618 Ry
     one-center paw contrib.   =     -76.15545350 Ry

     convergence has been achieved in  16 iterations

     negative rho (up, down):  9.416E-04 0.000E+00

     Forces acting on atoms (cartesian axes, Ry/au):

     atom    1 type  1   force =     0.00000000    0.00000000    0.00000000
     atom    2 type  2   force =     0.00000000    0.00000000    0.00000000

     Total force =     0.000000     Total SCF correction =     0.000000


     Computing stress (Cartesian axis) and pressure


     negative rho (up, down):  9.416E-04 0.000E+00
          total   stress  (Ry/bohr**3)                   (kbar)     P=      216.97
   0.00147490   0.00000000   0.00000000          216.97        0.00        0.00
   0.00000000   0.00147490   0.00000000            0.00      216.97        0.00
   0.00000000   0.00000000   0.00147490            0.00        0.00      216.97

     Energy error            =      5.3E-03 Ry
     Gradient error          =      0.0E+00 Ry/Bohr
     Cell gradient error     =      3.7E+01 kbar

     number of scf cycles    =   2
     number of bfgs steps    =   1

     enthalpy           old  =    -448.3768438877 Ry
     enthalpy           new  =    -448.3821266846 Ry

     CASE: enthalpy          _new < enthalpy          _old

     new trust radius        =       0.0124398689 bohr
     new conv_thr            =            1.0E-10 Ry

     new unit-cell volume =    160.96693 a.u.^3 (    23.85284 Ang^3 )
     density =      7.22001 g/cm^3

CELL_PARAMETERS (alat=  5.55330037)
   0.979552515   0.000000000   0.000000000
   0.000000000   0.979552515   0.000000000
   0.000000000   0.000000000   0.979552515

ATOMIC_POSITIONS (crystal)
Fe               0.5000000000        0.5000000000        0.5000000000
Ti               0.0000000000        0.0000000000        0.0000000000



     Writing config-only to output data dir ./TiFe.save/ :
     XML data file
     NEW-OLD atomic charge density approx. for the potential
     New effective cutoffs (rho, wfc): 1809.10  129.22

     Check: negative core charge=   -0.000002

     negative rho (up, down):  9.579E-04 0.000E+00

     total cpu time spent up to now is       58.7 secs

     per-process dynamical memory:   153.2 Mb

     Self-consistent Calculation

     iteration #  1     ecut=   124.00 Ry     beta= 0.70
     Davidson diagonalization with overlap
     ethr =  1.00E-06,  avg # of iterations =  5.1

     negative rho (up, down):  9.503E-04 0.000E+00

     total cpu time spent up to now is       60.1 secs

     total energy              =    -448.57932494 Ry
     estimated scf accuracy    <       0.00004924 Ry

     iteration #  2     ecut=   124.00 Ry     beta= 0.70
     Davidson diagonalization with overlap
     ethr =  1.76E-07,  avg # of iterations =  4.3

     negative rho (up, down):  9.464E-04 0.000E+00

     total cpu time spent up to now is       61.3 secs

     total energy              =    -448.57925345 Ry
     estimated scf accuracy    <       0.00363160 Ry

     iteration #  3     ecut=   124.00 Ry     beta= 0.70
     Davidson diagonalization with overlap
     ethr =  1.76E-07,  avg # of iterations =  4.8

     negative rho (up, down):  9.475E-04 0.000E+00

     total cpu time spent up to now is       62.4 secs

     total energy              =    -448.57949584 Ry
     estimated scf accuracy    <       0.00002361 Ry

     iteration #  4     ecut=   124.00 Ry     beta= 0.70
     Davidson diagonalization with overlap
     ethr =  8.43E-08,  avg # of iterations =  1.6

     negative rho (up, down):  9.474E-04 0.000E+00

     total cpu time spent up to now is       63.4 secs

     total energy              =    -448.57949928 Ry
     estimated scf accuracy    <       0.00000317 Ry

     iteration #  5     ecut=   124.00 Ry     beta= 0.70
     Davidson diagonalization with overlap
     ethr =  1.13E-08,  avg # of iterations =  3.9

     negative rho (up, down):  9.471E-04 0.000E+00

     total cpu time spent up to now is       64.4 secs

     total energy              =    -448.57949999 Ry
     estimated scf accuracy    <       0.00000008 Ry

     iteration #  6     ecut=   124.00 Ry     beta= 0.70
     Davidson diagonalization with overlap
     ethr =  2.87E-10,  avg # of iterations =  4.8

     negative rho (up, down):  9.471E-04 0.000E+00

     total cpu time spent up to now is       65.7 secs

     total energy              =    -448.57950005 Ry
     estimated scf accuracy    <       0.00000013 Ry

     iteration #  7     ecut=   124.00 Ry     beta= 0.70
     Davidson diagonalization with overlap
     ethr =  2.87E-10,  avg # of iterations =  1.6

     negative rho (up, down):  9.471E-04 0.000E+00

     total cpu time spent up to now is       66.6 secs

     total energy              =    -448.57950005 Ry
     estimated scf accuracy    <          2.6E-09 Ry

     iteration #  8     ecut=   124.00 Ry     beta= 0.70
     Davidson diagonalization with overlap
     ethr =  9.16E-12,  avg # of iterations =  4.3

     negative rho (up, down):  9.471E-04 0.000E+00

     total cpu time spent up to now is       67.8 secs

     total energy              =    -448.57950006 Ry
     estimated scf accuracy    <          4.4E-10 Ry

     iteration #  9     ecut=   124.00 Ry     beta= 0.70
     Davidson diagonalization with overlap
     ethr =  1.58E-12,  avg # of iterations =  2.8

     negative rho (up, down):  9.471E-04 0.000E+00

     total cpu time spent up to now is       68.8 secs

     total energy              =    -448.57950006 Ry
     estimated scf accuracy    <          1.2E-10 Ry

     iteration # 10     ecut=   124.00 Ry     beta= 0.70
     Davidson diagonalization with overlap
     ethr =  4.12E-13,  avg # of iterations =  2.6

     negative rho (up, down):  9.471E-04 0.000E+00

     total cpu time spent up to now is       69.8 secs

     End of self-consistent calculation

          k = 0.0000 0.0000 0.0000 (  3911 PWs)   bands (ev):

   -67.9487 -37.7213 -34.0127 -34.0127 -34.0127 -13.7946 -13.7946 -13.7946
    11.2704  14.8237  14.8237  17.8796  17.8796  17.8796  20.4026  20.4026
    22.5133  22.5133

          k = 0.0000 0.0000 0.0928 (  3947 PWs)   bands (ev):

   -67.9483 -37.7188 -34.0156 -34.0122 -34.0122 -13.8311 -13.7926 -13.7926
    11.4536  14.9128  14.9266  17.8661  17.8661  17.9207  20.2850  20.4476
    22.2380  22.2380

          k = 0.0000 0.0000 0.1856 (  3964 PWs)   bands (ev):

   -67.9473 -37.7122 -34.0233 -34.0108 -34.0108 -13.9281 -13.7871 -13.7871
    11.9833  15.1739  15.1970  17.8358  17.8358  18.0360  19.9457  20.5527
    21.5996  21.5996

          k = 0.0000 0.0000 0.2784 (  3988 PWs)   bands (ev):

   -67.9459 -37.7036 -34.0333 -34.0090 -34.0090 -14.0534 -13.7799 -13.7799
    12.7994  15.5185  15.5859  17.8115  17.8115  18.2001  19.4279  20.6078
    20.8945  20.8945

          k = 0.0000 0.0000 0.3712 (  4008 PWs)   bands (ev):

   -67.9447 -37.6957 -34.0423 -34.0074 -34.0074 -14.1667 -13.7733 -13.7733
    13.7934  15.6983  16.0982  17.8104  17.8104  18.3676  18.8152  20.3165
    20.3165  20.4337

          k = 0.0000 0.0000 0.4640 (  3992 PWs)   bands (ev):

   -67.9440 -37.6910 -34.0476 -34.0064 -34.0064 -14.2333 -13.7693 -13.7693
    14.7719  15.5035  16.5614  17.8236  17.8236  18.2910  18.4771  19.9884
    19.9884  20.1163

          k = 0.0000 0.0928 0.0928 (  3966 PWs)   bands (ev):

   -67.9479 -37.7161 -34.0172 -34.0134 -34.0117 -13.8330 -13.8244 -13.7904
    11.6328  15.0015  15.0261  17.7747  17.8442  18.0275  20.2685  20.4151
    21.9350  21.9642

          k = 0.0000 0.0928 0.1856 (  3978 PWs)   bands (ev):

   -67.9469 -37.7089 -34.0244 -34.0133 -34.0104 -13.9252 -13.8217 -13.7846
    12.1495  15.2408  15.3047  17.6869  17.7914  18.1574  20.0074  20.5070
    21.3443  21.3762

          k = 0.0000 0.0928 0.2784 (  3995 PWs)   bands (ev):

   -67.9456 -37.6996 -34.0345 -34.0125 -34.0086 -14.0489 -13.8134 -13.7770
    12.9412  15.5669  15.6828  17.6410  17.7330  18.2510  19.5663  20.4893
    20.8014  20.8304

          k = 0.0000 0.0928 0.3712 (  3991 PWs)   bands (ev):

   -67.9443 -37.6910 -34.0437 -34.0118 -34.0069 -14.1609 -13.8056 -13.7701
    13.8965  15.7459  16.1433  17.6511  17.6797  18.2556  19.0657  20.0400
    20.4676  20.6667

          k = 0.0000 0.0928 0.4640 (  3999 PWs)   bands (ev):

   -67.9436 -37.6859 -34.0492 -34.0113 -34.0060 -14.2267 -13.8011 -13.7659
    14.8237  15.5447  16.5613  17.6029  17.6969  18.1907  18.7117  19.7293
    20.3238  20.4717

          k = 0.0000 0.1856 0.1856 (  3972 PWs)   bands (ev):

   -67.9459 -37.7003 -34.0291 -34.0182 -34.0090 -13.9275 -13.9034 -13.7780
    12.6235  15.4037  15.6148  17.4948  17.6913  18.2451  20.0673  20.4603
    20.7852  21.0196

          k = 0.0000 0.1856 0.2784 (  4003 PWs)   bands (ev):

   -67.9446 -37.6889 -34.0383 -34.0215 -34.0073 -14.0371 -13.9020 -13.7694
    13.3315  15.6003  16.0349  17.3626  17.5998  18.1626  19.8713  20.2032
    20.6362  20.8254

          k = 0.0000 0.1856 0.3712 (  3997 PWs)   bands (ev):

   -67.9433 -37.6784 -34.0477 -34.0235 -34.0057 -14.1453 -13.8918 -13.7614
    14.1454  15.6875  16.4552  17.3253  17.5779  17.9298  19.5383  19.8412
    20.7918  20.8513

          k = 0.0000 0.1856 0.4640 (  3990 PWs)   bands (ev):

   -67.9426 -37.6722 -34.0534 -34.0245 -34.0048 -14.2091 -13.8855 -13.7566
    14.8705  15.5149  16.7498  17.3856  17.6278  17.6855  19.3550  19.5809
    20.8364  20.9610

          k = 0.0000 0.2784 0.2784 (  4000 PWs)   bands (ev):

   -67.9433 -37.6749 -34.0448 -34.0317 -34.0057 -14.0333 -14.0051 -13.7593
    13.8653  15.5879  16.5349  17.1342  17.5675  17.8686  19.9644  20.1211
    20.5357  21.0173

          k = 0.0000 0.2784 0.3712 (  3993 PWs)   bands (ev):

   -67.9420 -37.6619 -34.0532 -34.0385 -34.0042 -14.1251 -14.0029 -13.7500
    14.3872  15.4894  17.0151  17.0254  17.5112  17.7629  19.7725  20.1018
    20.7320  21.3222

          k = 0.0000 0.2784 0.4640 (  3996 PWs)   bands (ev):

   -67.9413 -37.6542 -34.0591 -34.0417 -34.0033 -14.1860 -13.9946 -13.7445
    14.7517  15.3335  17.0317  17.2208  17.2960  18.1641  19.5170  20.0475
    20.9874  21.5957

          k = 0.0000 0.3712 0.3712 (  4002 PWs)   bands (ev):

   -67.9408 -37.6467 -34.0592 -34.0514 -34.0028 -14.1132 -14.0970 -13.7395
    14.5105  15.2775  16.8111  17.1306  17.6876  18.2237  19.9258  20.4915
    20.5637  21.7666

          k = 0.0000 0.3712 0.4640 (  3999 PWs)   bands (ev):

   -67.9401 -37.6376 -34.0644 -34.0575 -34.0019 -14.1648 -14.0936 -13.7333
    14.5440  15.1443  16.7555  16.8671  18.0945  18.9192  19.6767  20.5658
    20.8093  22.0999

          k = 0.0000 0.4640 0.4640 (  3998 PWs)   bands (ev):

   -67.9394 -37.6276 -34.0677 -34.0667 -34.0011 -14.1531 -14.1508 -13.7266
    14.4029  15.0335  16.6234  16.6609  18.8317  19.3713  20.1283  20.3300
    20.8513  22.3982

          k = 0.0928 0.0928 0.0928 (  3959 PWs)   bands (ev):

   -67.9475 -37.7133 -34.0167 -34.0167 -34.0114 -13.8339 -13.8223 -13.8223
    11.8085  15.1063  15.1063  17.7505  17.7505  18.1143  20.3269  20.3269
    21.4790  22.2158

          k = 0.0928 0.0928 0.1856 (  3966 PWs)   bands (ev):

   -67.9465 -37.7056 -34.0249 -34.0152 -34.0113 -13.9221 -13.8214 -13.8167
    12.3142  15.3397  15.3796  17.6297  17.6868  18.2069  20.0727  20.4646
    20.9617  21.5753

          k = 0.0928 0.0928 0.2784 (  3992 PWs)   bands (ev):

   -67.9452 -37.6956 -34.0354 -34.0134 -34.0112 -14.0445 -13.8115 -13.8094
    13.0852  15.6945  15.7024  17.5684  17.6006  18.2017  19.6901  20.4225
    20.7564  20.8823

          k = 0.0928 0.0928 0.3712 (  3994 PWs)   bands (ev):

   -67.9440 -37.6864 -34.0449 -34.0117 -34.0111 -14.1553 -13.8026 -13.8023
    14.0071  15.8400  16.1417  17.4935  17.6070  18.1038  19.2651  20.1300
    20.3307  20.8769

          k = 0.0928 0.0928 0.4640 (  4007 PWs)   bands (ev):

   -67.9432 -37.6809 -34.0506 -34.0111 -34.0106 -14.2205 -13.7986 -13.7968
    14.8911  15.6131  16.5270  17.3585  17.7403  18.0022  18.9634  19.8386
    20.0277  20.9993

          k = 0.0928 0.1856 0.1856 (  3984 PWs)   bands (ev):

   -67.9455 -37.6966 -34.0286 -34.0199 -34.0116 -13.9233 -13.9012 -13.8118
    12.7836  15.5196  15.6684  17.4551  17.5701  18.1694  20.1450  20.4284
    20.6571  21.2649

          k = 0.0928 0.1856 0.2784 (  3994 PWs)   bands (ev):

   -67.9442 -37.6848 -34.0383 -34.0220 -34.0112 -14.0329 -13.8991 -13.8025
    13.4817  15.7303  16.0558  17.3163  17.4692  17.9690  19.9727  20.3378
    20.6711  20.8950

          k = 0.0928 0.1856 0.3712 (  4001 PWs)   bands (ev):

   -67.9430 -37.6740 -34.0483 -34.0233 -34.0103 -14.1405 -13.8887 -13.7939
    14.2773  15.8274  16.4022  17.2405  17.4695  17.7649  19.7055  19.9712
    20.5288  21.1965

          k = 0.0928 0.1856 0.4640 (  3993 PWs)   bands (ev):

   -67.9423 -37.6675 -34.0543 -34.0240 -34.0097 -14.2038 -13.8824 -13.7887
    14.9790  15.6355  16.6364  17.1784  17.5723  17.7220  19.5196  19.6616
    20.3136  21.6308

          k = 0.0928 0.2784 0.2784 (  3989 PWs)   bands (ev):

   -67.9429 -37.6707 -34.0441 -34.0324 -34.0101 -14.0283 -14.0029 -13.7922
    14.0222  15.7233  16.5445  17.0939  17.4191  17.6387  20.0930  20.2887
    20.5174  21.1713

          k = 0.0928 0.2784 0.3712 (  3985 PWs)   bands (ev):

   -67.9417 -37.6576 -34.0530 -34.0385 -34.0089 -14.1211 -14.0000 -13.7826
    14.5407  15.6258  16.9345  16.9908  17.3925  17.6085  19.8628  20.1996
    20.5990  21.6272

          k = 0.0928 0.2784 0.4640 (  4006 PWs)   bands (ev):

   -67.9410 -37.6499 -34.0593 -34.0412 -34.0081 -14.1820 -13.9919 -13.7769
    14.8893  15.4696  16.9409  17.0086  17.3680  18.0559  19.5598  20.1605
    20.5316  22.1531

          k = 0.0928 0.3712 0.3712 (  3992 PWs)   bands (ev):

   -67.9405 -37.6425 -34.0585 -34.0515 -34.0075 -14.1094 -14.0948 -13.7722
    14.6651  15.4134  16.7793  17.0351  17.6432  18.0337  19.8772  20.4307
    20.5995  22.1151

          k = 0.0928 0.3712 0.4640 (  4002 PWs)   bands (ev):

   -67.9398 -37.6335 -34.0640 -34.0569 -34.0067 -14.1618 -14.0912 -13.7660
    14.6885  15.2835  16.7222  16.8133  18.0184  18.7269  19.6231  20.3968
    20.7029  22.3580

          k = 0.0928 0.4640 0.4640 (  3993 PWs)   bands (ev):

   -67.9391 -37.6238 -34.0670 -34.0660 -34.0058 -14.1507 -14.1487 -13.7596
    14.5486  15.1733  16.6010  16.6338  18.7748  19.2356  19.8269  19.9503
    20.9337  22.5984

          k = 0.1856 0.1856 0.1856 (  3989 PWs)   bands (ev):

   -67.9445 -37.6867 -34.0270 -34.0270 -34.0161 -13.9185 -13.8954 -13.8954
    13.2365  15.8205  15.8205  17.3495  17.3495  17.8850  20.3344  20.3344
    20.7251  21.5307

          k = 0.1856 0.1856 0.2784 (  3992 PWs)   bands (ev):

   -67.9432 -37.6738 -34.0388 -34.0250 -34.0194 -14.0217 -13.8939 -13.8878
    13.8967  16.0442  16.1411  17.2030  17.2092  17.5404  20.1914  20.4334
    20.8653  21.0632

          k = 0.1856 0.1856 0.3712 (  3994 PWs)   bands (ev):

   -67.9420 -37.6619 -34.0500 -34.0232 -34.0219 -14.1274 -13.8809 -13.8800
    14.6156  16.1556  16.2924  17.0637  17.2512  17.4607  20.0397  20.1661
    20.3482  21.6799

          k = 0.1856 0.1856 0.4640 (  3986 PWs)   bands (ev):

   -67.9413 -37.6548 -34.0567 -34.0233 -34.0221 -14.1896 -13.8767 -13.8716
    15.2067  15.8511  16.4882  16.9432  17.3866  17.6778  19.7310  19.9497
    20.0570  22.0673

          k = 0.1856 0.2784 0.2784 (  3994 PWs)   bands (ev):

   -67.9419 -37.6594 -34.0425 -34.0344 -34.0215 -14.0152 -13.9971 -13.8798
    14.4593  16.0917  16.5651  16.9915  17.0857  17.1743  20.2309  20.4363
    20.7483  21.5914

          k = 0.1856 0.2784 0.3712 (  3988 PWs)   bands (ev):

   -67.9407 -37.6461 -34.0527 -34.0383 -34.0213 -14.1103 -13.9922 -13.8695
    14.9665  15.9821  16.7126  16.8759  17.1692  17.2862  19.9854  20.2550
    20.6298  21.8986

          k = 0.1856 0.2784 0.4640 (  3991 PWs)   bands (ev):

   -67.9400 -37.6382 -34.0600 -34.0398 -34.0209 -14.1710 -13.9847 -13.8632
    15.2589  15.8010  16.6691  16.8265  17.2781  17.8015  19.6130  20.0725
    20.5283  22.1440

          k = 0.1856 0.3712 0.3712 (  3990 PWs)   bands (ev):

   -67.9395 -37.6315 -34.0567 -34.0515 -34.0201 -14.0993 -14.0890 -13.8593
    15.1059  15.7666  16.7008  16.8324  17.5043  17.5615  19.8450  20.1137
    20.9197  22.0751

          k = 0.1856 0.3712 0.4640 (  3993 PWs)   bands (ev):

   -67.9388 -37.6227 -34.0631 -34.0554 -34.0194 -14.1539 -14.0847 -13.8533
    15.0981  15.6452  16.6429  16.6997  17.7619  18.2429  19.5539  19.9371
    21.0044  22.3412

          k = 0.1856 0.4640 0.4640 (  4002 PWs)   bands (ev):

   -67.9381 -37.6135 -34.0651 -34.0644 -34.0184 -14.1444 -14.1430 -13.8473
    14.9657  15.5452  16.5489  16.5737  18.4936  18.6342  19.4405  19.6249
    21.2147  22.6570

          k = 0.2784 0.2784 0.2784 (  3998 PWs)   bands (ev):

   -67.9406 -37.6446 -34.0403 -34.0403 -34.0334 -14.0017 -13.9893 -13.9893
    15.0538  16.5760  16.5760  16.6546  16.8719  16.8719  20.2468  20.2468
    21.2590  21.2590

          k = 0.2784 0.2784 0.3712 (  3992 PWs)   bands (ev):

   -67.9394 -37.6309 -34.0528 -34.0382 -34.0371 -14.0964 -13.9822 -13.9814
    15.5146  16.2614  16.5619  16.7812  16.8907  17.1241  19.9806  20.0163
    21.0906  21.8026

          k = 0.2784 0.2784 0.4640 (  3990 PWs)   bands (ev):

   -67.9387 -37.6228 -34.0609 -34.0386 -34.0370 -14.1568 -13.9780 -13.9720
    15.6473  16.0480  16.5393  16.7378  17.1187  17.6154  19.5515  19.8762
    21.0312  22.1789

          k = 0.2784 0.3712 0.3712 (  3988 PWs)   bands (ev):

   -67.9382 -37.6169 -34.0543 -34.0516 -34.0367 -14.0861 -14.0813 -13.9720
    15.7482  16.1364  16.6175  16.7428  17.0258  17.2753  19.7934  19.8043
    21.4244  22.0196

          k = 0.2784 0.3712 0.4640 (  3992 PWs)   bands (ev):

   -67.9375 -37.6086 -34.0619 -34.0533 -34.0360 -14.1436 -14.0763 -13.9660
    15.6768  16.0508  16.5749  16.6578  17.3498  17.7291  19.4400  19.7032
    21.4932  22.3781

          k = 0.2784 0.4640 0.4640 (  4000 PWs)   bands (ev):

   -67.9368 -37.6001 -34.0626 -34.0623 -34.0349 -14.1361 -14.1355 -13.9608
    15.5848  16.0119  16.5069  16.5424  17.9133  17.9323  19.2496  19.5354
    21.6902  22.6973

          k = 0.3712 0.3712 0.3712 (  3999 PWs)   bands (ev):

   -67.9371 -37.6035 -34.0521 -34.0521 -34.0514 -14.0743 -14.0743 -14.0736
    16.0940  16.5784  16.5784  16.5831  17.0055  17.0055  19.6088  19.6088
    22.0254  22.0254

          k = 0.3712 0.3712 0.4640 (  4008 PWs)   bands (ev):

   -67.9364 -37.5955 -34.0609 -34.0517 -34.0508 -14.1342 -14.0701 -14.0666
    16.0945  16.3033  16.6231  16.7707  17.0340  17.3867  19.3324  19.5232
    22.0393  22.4781

          k = 0.3712 0.4640 0.4640 (  3994 PWs)   bands (ev):

   -67.9357 -37.5877 -34.0603 -34.0603 -34.0500 -14.1286 -14.1285 -14.0637
    16.2117  16.4019  16.5243  16.6590  17.3232  17.3700  19.2027  19.3811
    22.2838  22.7298

          k = 0.4640 0.4640 0.4640 (  3972 PWs)   bands (ev):

   -67.9350 -37.5803 -34.0591 -34.0589 -34.0589 -14.1245 -14.1245 -14.1237
    16.4727  16.6410  16.6410  16.9509  16.9509  17.0009  19.1916  19.1916
    22.7484  22.7484

     the Fermi energy is    18.9463 ev

!    total energy              =    -448.57950006 Ry
     estimated scf accuracy    <          3.9E-12 Ry
     smearing contrib. (-TS)   =      -0.00002400 Ry
     internal energy E=F+TS    =    -448.57947605 Ry

     The total energy is F=E-TS. E is the sum of the following terms:
     one-electron contribution =    -143.01235923 Ry
     hartree contribution      =      88.83381911 Ry
     xc contribution           =     -53.00147780 Ry
     ewald contribution        =    -265.24428115 Ry
     one-center paw contrib.   =     -76.15517699 Ry

     convergence has been achieved in  10 iterations

     negative rho (up, down):  9.471E-04 0.000E+00

     Forces acting on atoms (cartesian axes, Ry/au):

     atom    1 type  1   force =     0.00000000    0.00000000    0.00000000
     atom    2 type  2   force =     0.00000000    0.00000000    0.00000000

     Total force =     0.000000     Total SCF correction =     0.000000


     Computing stress (Cartesian axis) and pressure


     negative rho (up, down):  9.471E-04 0.000E+00
          total   stress  (Ry/bohr**3)                   (kbar)     P=      177.15
   0.00120422   0.00000000   0.00000000          177.15        0.00        0.00
   0.00000000   0.00120422   0.00000000            0.00      177.15        0.00
   0.00000000   0.00000000   0.00120422            0.00        0.00      177.15

     Energy error            =      2.7E-04 Ry
     Gradient error          =      0.0E+00 Ry/Bohr
     Cell gradient error     =      3.0E+00 kbar

     number of scf cycles    =   3
     number of bfgs steps    =   2

     enthalpy           old  =    -448.3821266846 Ry
[...]
     estimated scf accuracy    <       0.00000030 Ry

     iteration # 27     ecut=   124.00 Ry     beta= 0.70
     Davidson diagonalization with overlap
     ethr =  1.08E-09,  avg # of iterations =  2.9

     negative rho (up, down):  9.457E-04 0.000E+00

     total cpu time spent up to now is      110.7 secs

     total energy              =    -448.57918124 Ry
     estimated scf accuracy    <       0.00000021 Ry

     iteration # 28     ecut=   124.00 Ry     beta= 0.70
     Davidson diagonalization with overlap
     ethr =  7.65E-10,  avg # of iterations =  1.2

     negative rho (up, down):  9.457E-04 0.000E+00

     total cpu time spent up to now is      111.5 secs

     total energy              =    -448.57918124 Ry
     estimated scf accuracy    <       0.00000016 Ry

     iteration # 29     ecut=   124.00 Ry     beta= 0.70
     Davidson diagonalization with overlap
     ethr =  5.54E-10,  avg # of iterations =  1.0

     negative rho (up, down):  9.458E-04 0.000E+00

     total cpu time spent up to now is      112.4 secs

     total energy              =    -448.57918124 Ry
     estimated scf accuracy    <       0.00000009 Ry

     iteration # 30     ecut=   124.00 Ry     beta= 0.70
     Davidson diagonalization with overlap
     ethr =  3.05E-10,  avg # of iterations =  1.0

     negative rho (up, down):  9.459E-04 0.000E+00

     total cpu time spent up to now is      113.3 secs

     total energy              =    -448.57918120 Ry
     estimated scf accuracy    <       0.00000008 Ry

     iteration # 31     ecut=   124.00 Ry     beta= 0.70
     Davidson diagonalization with overlap
     ethr =  2.85E-10,  avg # of iterations =  3.9

     negative rho (up, down):  9.458E-04 0.000E+00

     total cpu time spent up to now is      114.3 secs

     total energy              =    -448.57918122 Ry
     estimated scf accuracy    <       0.00000004 Ry

     iteration # 32     ecut=   124.00 Ry     beta= 0.70
     Davidson diagonalization with overlap
     ethr =  1.49E-10,  avg # of iterations =  1.3

     negative rho (up, down):  9.458E-04 0.000E+00

     total cpu time spent up to now is      115.1 secs

     total energy              =    -448.57918122 Ry
     estimated scf accuracy    <          5.9E-09 Ry

     iteration # 33     ecut=   124.00 Ry     beta= 0.70
     Davidson diagonalization with overlap
     ethr =  2.11E-11,  avg # of iterations =  3.2

     negative rho (up, down):  9.458E-04 0.000E+00

     total cpu time spent up to now is      116.1 secs

     total energy              =    -448.57918122 Ry
     estimated scf accuracy    <          1.2E-09 Ry

     iteration # 34     ecut=   124.00 Ry     beta= 0.70
     Davidson diagonalization with overlap
     ethr =  4.41E-12,  avg # of iterations =  2.5

     negative rho (up, down):  9.458E-04 0.000E+00

     total cpu time spent up to now is      117.0 secs

     End of self-consistent calculation

          k = 0.0000 0.0000 0.0000 (  3743 PWs)   bands (ev):

   -67.9252 -37.6948 -33.9892 -33.9892 -33.9892 -13.7677 -13.7677 -13.7677
    11.2914  14.8414  14.8414  17.9023  17.9023  17.9023  20.4287  20.4287
    22.5426  22.5426

          k = 0.0000 0.0000 0.0928 (  3783 PWs)   bands (ev):

   -67.9248 -37.6923 -33.9921 -33.9887 -33.9887 -13.8043 -13.7656 -13.7656
    11.4748  14.9306  14.9446  17.8888  17.8888  17.9435  20.3108  20.4738
    22.2669  22.2669

          k = 0.0000 0.0000 0.1857 (  3771 PWs)   bands (ev):

   -67.9238 -37.6857 -33.9998 -33.9873 -33.9873 -13.9017 -13.7601 -13.7601
    12.0050  15.1921  15.2157  17.8585  17.8585  18.0589  19.9708  20.5791
    21.6275  21.6275

          k = 0.0000 0.0000 0.2785 (  3763 PWs)   bands (ev):

   -67.9225 -37.6770 -34.0097 -33.9855 -33.9855 -14.0274 -13.7529 -13.7529
    12.8218  15.5383  15.6046  17.8342  17.8342  18.2232  19.4522  20.6347
    20.9212  20.9212

          k = 0.0000 0.0000 0.3714 (  3760 PWs)   bands (ev):

   -67.9212 -37.6691 -34.0188 -33.9838 -33.9838 -14.1412 -13.7463 -13.7463
    13.8165  15.7194  16.1176  17.8331  17.8331  18.3910  18.8384  20.3424
    20.3424  20.4609

          k = 0.0000 0.0000 0.4642 (  3764 PWs)   bands (ev):

   -67.9205 -37.6644 -34.0241 -33.9828 -33.9828 -14.2080 -13.7424 -13.7424
    14.7951  15.5259  16.5815  17.8464  17.8464  18.3132  18.5007  20.0137
    20.0137  20.1435

          k = 0.0000 0.0928 0.0928 (  3787 PWs)   bands (ev):

   -67.9244 -37.6896 -33.9937 -33.9898 -33.9882 -13.8062 -13.7976 -13.7635
    11.6542  15.0195  15.0443  17.7972  17.8669  18.0505  20.2943  20.4412
    21.9633  21.9926

          k = 0.0000 0.0928 0.1857 (  3776 PWs)   bands (ev):

   -67.9234 -37.6824 -34.0009 -33.9897 -33.9868 -13.8988 -13.7948 -13.7577
    12.1713  15.2592  15.3235  17.7092  17.8140  18.1806  20.0327  20.5334
    21.3718  21.4037

          k = 0.0000 0.0928 0.2785 (  3751 PWs)   bands (ev):

   -67.9221 -37.6730 -34.0110 -33.9890 -33.9850 -14.0229 -13.7865 -13.7501
    12.9637  15.5864  15.7021  17.6633  17.7556  18.2743  19.5908  20.5159
    20.8281  20.8570

          k = 0.0000 0.0928 0.3714 (  3750 PWs)   bands (ev):

   -67.9208 -37.6644 -34.0202 -33.9882 -33.9833 -14.1354 -13.7788 -13.7431
    13.9195  15.7669  16.1630  17.6735  17.7022  18.2789  19.0893  20.0659
    20.4937  20.6938

          k = 0.0000 0.0928 0.4642 (  3749 PWs)   bands (ev):

   -67.9201 -37.6593 -34.0257 -33.9877 -33.9824 -14.2015 -13.7742 -13.7389
    14.8467  15.5670  16.5815  17.6253  17.7195  18.2138  18.7348  19.7548
    20.3497  20.4988

          k = 0.0000 0.1857 0.1857 (  3751 PWs)   bands (ev):

   -67.9224 -37.6737 -34.0057 -33.9946 -33.9855 -13.9011 -13.8769 -13.7511
    12.6458  15.4224  15.6342  17.5168  17.7138  18.2685  20.0928  20.4865
    20.8119  21.0465

          k = 0.0000 0.1857 0.2785 (  3759 PWs)   bands (ev):

   -67.9211 -37.6623 -34.0148 -33.9980 -33.9838 -14.0112 -13.8755 -13.7424
    13.3541  15.6196  16.0552  17.3844  17.6223  18.1858  19.8963  20.2293
    20.6628  20.8520

          k = 0.0000 0.1857 0.3714 (  3738 PWs)   bands (ev):

   -67.9198 -37.6518 -34.0242 -33.9999 -33.9821 -14.1198 -13.8652 -13.7344
    14.1681  15.7077  16.4761  17.3471  17.6007  17.9527  19.5628  19.8669
    20.8190  20.8779

          k = 0.0000 0.1857 0.4642 (  3737 PWs)   bands (ev):

   -67.9191 -37.6456 -34.0300 -34.0010 -33.9812 -14.1838 -13.8589 -13.7296
    14.8926  15.5364  16.7710  17.4076  17.6509  17.7078  19.3792  19.6063
    20.8641  20.9879

          k = 0.0000 0.2785 0.2785 (  3750 PWs)   bands (ev):

   -67.9197 -37.6482 -34.0214 -34.0081 -33.9821 -14.0073 -13.9790 -13.7322
    13.8877  15.6075  16.5561  17.1556  17.5904  17.8913  19.9902  20.1465
    20.5623  21.0442

          k = 0.0000 0.2785 0.3714 (  3747 PWs)   bands (ev):

   -67.9185 -37.6352 -34.0298 -34.0150 -33.9806 -14.0995 -13.9768 -13.7229
    14.4088  15.5094  17.0364  17.0475  17.5334  17.7866  19.7981  20.1273
    20.7592  21.3497

          k = 0.0000 0.2785 0.4642 (  3751 PWs)   bands (ev):

   -67.9178 -37.6275 -34.0357 -34.0183 -33.9797 -14.1606 -13.9685 -13.7174
    14.7722  15.3541  17.0530  17.2424  17.3185  18.1888  19.5423  20.0728
    21.0154  21.6237

          k = 0.0000 0.3714 0.3714 (  3736 PWs)   bands (ev):

   -67.9173 -37.6199 -34.0358 -34.0280 -33.9792 -14.0875 -14.0712 -13.7124
    14.5307  15.2974  16.8320  17.1521  17.7108  18.2486  19.9519  20.5176
    20.5908  21.7948

          k = 0.0000 0.3714 0.4642 (  3734 PWs)   bands (ev):

   -67.9166 -37.6107 -34.0410 -34.0341 -33.9783 -14.1392 -14.0677 -13.7061
    14.5633  15.1643  16.7764  16.8881  18.1184  18.9450  19.7027  20.5921
    20.8371  22.1287

          k = 0.0000 0.4642 0.4642 (  3732 PWs)   bands (ev):

   -67.9159 -37.6007 -34.0444 -34.0433 -33.9775 -14.1274 -14.1252 -13.6994
    14.4216  15.0532  16.6441  16.6817  18.8563  19.3971  20.1557  20.3577
    20.8780  22.4274

          k = 0.0928 0.0928 0.0928 (  3779 PWs)   bands (ev):

   -67.9241 -37.6867 -33.9932 -33.9932 -33.9879 -13.8072 -13.7955 -13.7955
    11.8301  15.1246  15.1246  17.7730  17.7730  18.1375  20.3528  20.3528
    21.5066  22.2446

          k = 0.0928 0.0928 0.1857 (  3771 PWs)   bands (ev):

   -67.9230 -37.6791 -34.0014 -33.9917 -33.9877 -13.8957 -13.7946 -13.7899
    12.3363  15.3582  15.3985  17.6520  17.7092  18.2302  20.0982  20.4909
    20.9885  21.6031

          k = 0.0928 0.0928 0.2785 (  3747 PWs)   bands (ev):

   -67.9217 -37.6690 -34.0119 -33.9898 -33.9876 -14.0185 -13.7847 -13.7825
    13.1079  15.7145  15.7214  17.5906  17.6229  18.2250  19.7148  20.4490
    20.7830  20.9091

          k = 0.0928 0.0928 0.3714 (  3749 PWs)   bands (ev):

   -67.9205 -37.6598 -34.0215 -33.9881 -33.9875 -14.1298 -13.7758 -13.7754
    14.0301  15.8612  16.1613  17.5157  17.6294  18.1269  19.2891  20.1563
    20.3567  20.9041

          k = 0.0928 0.0928 0.4642 (  3751 PWs)   bands (ev):

   -67.9197 -37.6543 -34.0271 -33.9875 -33.9871 -14.1952 -13.7717 -13.7699
    14.9140  15.6354  16.5471  17.3804  17.7631  18.0251  18.9869  19.8647
    20.0532  21.0268

          k = 0.0928 0.1857 0.1857 (  3748 PWs)   bands (ev):

   -67.9220 -37.6700 -34.0051 -33.9964 -33.9880 -13.8969 -13.8747 -13.7850
    12.8060  15.5386  15.6878  17.4771  17.5923  18.1927  20.1706  20.4546
    20.6835  21.2922

          k = 0.0928 0.1857 0.2785 (  3749 PWs)   bands (ev):

   -67.9207 -37.6582 -34.0148 -33.9985 -33.9876 -14.0069 -13.8725 -13.7757
    13.5045  15.7498  16.0761  17.3380  17.4914  17.9919  19.9980  20.3642
    20.6977  20.9217

          k = 0.0928 0.1857 0.3714 (  3741 PWs)   bands (ev):

   -67.9195 -37.6473 -34.0248 -33.9997 -33.9867 -14.1148 -13.8621 -13.7670
    14.3001  15.8479  16.4230  17.2622  17.4920  17.7875  19.7303  19.9972
    20.5553  21.2240

          k = 0.0928 0.1857 0.4642 (  3743 PWs)   bands (ev):

   -67.9187 -37.6408 -34.0309 -34.0005 -33.9861 -14.1785 -13.8558 -13.7618
    15.0012  15.6571  16.6572  17.2002  17.5948  17.7449  19.5440  19.6872
    20.3400  21.6592

          k = 0.0928 0.2785 0.2785 (  3737 PWs)   bands (ev):

   -67.9194 -37.6440 -34.0207 -34.0088 -33.9865 -14.0023 -13.9768 -13.7653
    14.0447  15.7431  16.5657  17.1153  17.4416  17.6612  20.1190  20.3143
    20.5440  21.1986

          k = 0.0928 0.2785 0.3714 (  3748 PWs)   bands (ev):

   -67.9182 -37.6309 -34.0296 -34.0150 -33.9853 -14.0954 -13.9739 -13.7557
    14.5625  15.6460  16.9559  17.0124  17.4146  17.6318  19.8886  20.2252
    20.6258  21.6553

          k = 0.0928 0.2785 0.4642 (  3753 PWs)   bands (ev):

   -67.9174 -37.6231 -34.0359 -34.0177 -33.9845 -14.1565 -13.9657 -13.7499
    14.9100  15.4904  16.9621  17.0301  17.3906  18.0802  19.5852  20.1860
    20.5586  22.1820

          k = 0.0928 0.3714 0.3714 (  3747 PWs)   bands (ev):

   -67.9170 -37.6157 -34.0351 -34.0280 -33.9839 -14.0837 -14.0690 -13.7452
    14.6855  15.4335  16.8002  17.0565  17.6663  18.0582  19.9031  20.4576
    20.6257  22.1440

          k = 0.0928 0.3714 0.4642 (  3741 PWs)   bands (ev):

   -67.9162 -37.6067 -34.0407 -34.0335 -33.9831 -14.1362 -14.0653 -13.7390
    14.7080  15.3037  16.7430  16.8343  18.0422  18.7525  19.6488  20.4239
    20.7293  22.3871

          k = 0.0928 0.4642 0.4642 (  3737 PWs)   bands (ev):

   -67.9155 -37.5969 -34.0437 -34.0427 -33.9822 -14.1251 -14.1231 -13.7325
    14.5675  15.1933  16.6216  16.6545  18.7994  19.2616  19.8533  19.9772
    20.9605  22.6278

          k = 0.1857 0.1857 0.1857 (  3743 PWs)   bands (ev):

   -67.9210 -37.6601 -34.0035 -34.0035 -33.9924 -13.8921 -13.8689 -13.8689
    13.2592  15.8401  15.8401  17.3714  17.3714  17.9080  20.3604  20.3604
    20.7518  21.5584

          k = 0.1857 0.1857 0.2785 (  3750 PWs)   bands (ev):

   -67.9197 -37.6471 -34.0153 -34.0015 -33.9958 -13.9957 -13.8673 -13.8613
    13.9197  16.0641  16.1617  17.2247  17.2309  17.5627  20.2172  20.4599
    20.8920  21.0905

          k = 0.1857 0.1857 0.3714 (  3761 PWs)   bands (ev):

   -67.9185 -37.6352 -34.0266 -33.9997 -33.9984 -14.1017 -13.8543 -13.8534
    14.6385  16.1770  16.3126  17.0854  17.2732  17.4829  20.0651  20.1925
    20.3742  21.7082

          k = 0.1857 0.1857 0.4642 (  3758 PWs)   bands (ev):

   -67.9178 -37.6281 -34.0333 -33.9998 -33.9985 -14.1642 -13.8501 -13.8450
    15.2288  15.8729  16.5085  16.9648  17.4089  17.7008  19.7571  19.9748
    20.0826  22.0959

          k = 0.1857 0.2785 0.2785 (  3751 PWs)   bands (ev):

   -67.9184 -37.6326 -34.0190 -34.0109 -33.9980 -13.9892 -13.9709 -13.8532
    14.4824  16.1120  16.5862  17.0129  17.1073  17.1961  20.2570  20.4628
    20.7747  21.6196

          k = 0.1857 0.2785 0.3714 (  3747 PWs)   bands (ev):

   -67.9172 -37.6193 -34.0293 -34.0149 -33.9978 -14.0846 -13.9660 -13.8429
    14.9888  16.0027  16.7336  16.8972  17.1914  17.3086  20.0113  20.2814
    20.6560  21.9269

          k = 0.1857 0.2785 0.4642 (  3759 PWs)   bands (ev):

   -67.9165 -37.6113 -34.0366 -34.0163 -33.9974 -14.1455 -13.9585 -13.8366
    15.2800  15.8221  16.6899  16.8480  17.3008  17.8252  19.6387  20.0985
    20.5542  22.1727

          k = 0.1857 0.3714 0.3714 (  3751 PWs)   bands (ev):

   -67.9160 -37.6046 -34.0333 -34.0281 -33.9966 -14.0735 -14.0631 -13.8327
    15.1268  15.7872  16.7217  16.8536  17.5273  17.5853  19.8707  20.1401
    20.9464  22.1036

          k = 0.1857 0.3714 0.4642 (  3745 PWs)   bands (ev):

   -67.9153 -37.5958 -34.0397 -34.0320 -33.9958 -14.1283 -14.0589 -13.8266
    15.1180  15.6659  16.6638  16.7207  17.7857  18.2676  19.5795  19.9631
    21.0312  22.3702

          k = 0.1857 0.4642 0.4642 (  3736 PWs)   bands (ev):

   -67.9146 -37.5866 -34.0418 -34.0411 -33.9949 -14.1188 -14.1173 -13.8206
    14.9850  15.5656  16.5696  16.5945  18.5182  18.6595  19.4661  19.6504
    21.2419  22.6864

          k = 0.2785 0.2785 0.2785 (  3755 PWs)   bands (ev):

   -67.9171 -37.6178 -34.0168 -34.0168 -34.0099 -13.9756 -13.9631 -13.9631
    15.0773  16.5970  16.5970  16.6756  16.8933  16.8933  20.2731  20.2731
    21.2861  21.2861

          k = 0.2785 0.2785 0.3714 (  3748 PWs)   bands (ev):

   -67.9159 -37.6040 -34.0294 -34.0148 -34.0136 -14.0706 -13.9560 -13.9551
    15.5373  16.2823  16.5827  16.8028  16.9125  17.1463  20.0067  20.0422
    21.1174  21.8307

          k = 0.2785 0.2785 0.4642 (  3747 PWs)   bands (ev):

   -67.9152 -37.5958 -34.0376 -34.0151 -34.0136 -14.1312 -13.9518 -13.9457
    15.6684  16.0691  16.5599  16.7595  17.1415  17.6386  19.5770  19.9019
    21.0579  22.2076

          k = 0.2785 0.3714 0.3714 (  3728 PWs)   bands (ev):

   -67.9147 -37.5899 -34.0309 -34.0281 -34.0132 -14.0602 -14.0555 -13.9457
    15.7695  16.1575  16.6384  16.7643  17.0485  17.2980  19.8190  19.8301
    21.4518  22.0479

          k = 0.2785 0.3714 0.4642 (  3747 PWs)   bands (ev):

   -67.9140 -37.5815 -34.0385 -34.0299 -34.0125 -14.1180 -14.0504 -13.9398
    15.6972  16.0718  16.5957  16.6792  17.3731  17.7527  19.4653  19.7287
    21.5207  22.4071

          k = 0.2785 0.4642 0.4642 (  3740 PWs)   bands (ev):

   -67.9133 -37.5730 -34.0393 -34.0389 -34.0114 -14.1105 -14.1098 -13.9345
    15.6048  16.0331  16.5277  16.5634  17.9374  17.9563  19.2746  19.5607
    21.7181  22.7268

          k = 0.3714 0.3714 0.3714 (  3737 PWs)   bands (ev):

   -67.9135 -37.5764 -34.0287 -34.0287 -34.0280 -14.0484 -14.0484 -14.0478
    16.1144  16.5994  16.5994  16.6066  17.0277  17.0277  19.6342  19.6342
    22.0537  22.0537

          k = 0.3714 0.3714 0.4642 (  3742 PWs)   bands (ev):

   -67.9128 -37.5684 -34.0375 -34.0283 -34.0274 -14.1085 -14.0442 -14.0407
    16.1149  16.3244  16.6443  16.7924  17.0571  17.4096  19.3575  19.5484
    22.0677  22.5073

          k = 0.3714 0.4642 0.4642 (  3741 PWs)   bands (ev):

   -67.9121 -37.5605 -34.0370 -34.0369 -34.0266 -14.1029 -14.1028 -14.0378
    16.2323  16.4233  16.5454  16.6807  17.3462  17.3929  19.2275  19.4062
    22.3127  22.7593

          k = 0.4642 0.4642 0.4642 (  3750 PWs)   bands (ev):

   -67.9114 -37.5531 -34.0358 -34.0356 -34.0356 -14.0988 -14.0988 -14.0980
    16.4939  16.6627  16.6627  16.9728  16.9728  17.0234  19.2164  19.2164
    22.7779  22.7779

     the Fermi energy is    18.9712 ev

!    total energy              =    -448.57918122 Ry
     estimated scf accuracy    <          1.8E-11 Ry
     smearing contrib. (-TS)   =      -0.00002553 Ry
     internal energy E=F+TS    =    -448.57915570 Ry

     The total energy is F=E-TS. E is the sum of the following terms:
     one-electron contribution =    -142.86167123 Ry
     hartree contribution      =      88.78417852 Ry
     xc contribution           =     -53.00355950 Ry
     ewald contribution        =    -265.34291941 Ry
     one-center paw contrib.   =     -76.15518408 Ry

     convergence has been achieved in  34 iterations

     negative rho (up, down):  9.458E-04 0.000E+00

     Forces acting on atoms (cartesian axes, Ry/au):

     atom    1 type  1   force =     0.00000000    0.00000000    0.00000000
     atom    2 type  2   force =     0.00000000    0.00000000    0.00000000

     Total force =     0.000000     Total SCF correction =     0.000000


     Computing stress (Cartesian axis) and pressure


     negative rho (up, down):  9.458E-04 0.000E+00
          total   stress  (Ry/bohr**3)                   (kbar)     P=      179.52
   0.00122034   0.00000000   0.00000000          179.52        0.00        0.00
   0.00000000   0.00122034   0.00000000            0.00      179.52        0.00
   0.00000000   0.00000000   0.00122034            0.00        0.00      179.52


     Writing all to output data dir ./TiFe.save/ :
     XML data file, charge density, pseudopotentials, collected wavefunctions

     init_run     :      1.72s CPU      1.79s WALL (       2 calls)
     electrons    :    102.35s CPU    107.51s WALL (       5 calls)
     update_pot   :      0.24s CPU      0.26s WALL (       3 calls)
     forces       :      1.13s CPU      1.22s WALL (       5 calls)
     stress       :      6.71s CPU      6.95s WALL (       5 calls)

     Called by init_run:
     wfcinit      :      0.58s CPU      0.60s WALL (       2 calls)
     potinit      :      0.45s CPU      0.46s WALL (       2 calls)
     hinit0       :      0.38s CPU      0.39s WALL (       2 calls)

     Called by electrons:
     c_bands      :     60.80s CPU     62.31s WALL (     104 calls)
     sum_band     :     22.39s CPU     24.33s WALL (     104 calls)
     v_of_rho     :      2.23s CPU      2.41s WALL (     108 calls)
     newd         :     11.93s CPU     13.36s WALL (     108 calls)
     PAW_pot      :      5.57s CPU      5.65s WALL (     111 calls)
     mix_rho      :      0.25s CPU      0.28s WALL (     104 calls)

     Called by c_bands:
     init_us_2    :      1.72s CPU      1.78s WALL (   12488 calls)
     cegterg      :     57.83s CPU     59.23s WALL (    5824 calls)

     Called by *egterg:
     cdiaghg      :      6.63s CPU      6.78s WALL (   21418 calls)
     h_psi        :     44.58s CPU     45.72s WALL (   21754 calls)
     s_psi        :      1.13s CPU      1.16s WALL (   21754 calls)
     g_psi        :      0.27s CPU      0.27s WALL (   15818 calls)

     Called by h_psi:
     h_psi:calbec :      1.62s CPU      1.66s WALL (   21754 calls)
     vloc_psi     :     41.60s CPU     42.67s WALL (   21754 calls)
     add_vuspsi   :      1.16s CPU      1.19s WALL (   21754 calls)

     General routines
     calbec       :      2.59s CPU      2.65s WALL (   32506 calls)
     fft          :      1.39s CPU      1.63s WALL (    1523 calls)
     ffts         :      0.30s CPU      0.31s WALL (     212 calls)
     fftw         :     37.33s CPU     38.22s WALL (  641952 calls)
     interpolate  :      0.40s CPU      0.42s WALL (     108 calls)

     Parallel routines

     PWSCF        :    113.01s CPU    118.78s WALL


   This run was terminated on:  15:40:45  25Oct2025            

=------------------------------------------------------------------------------=
   JOB DONE.
=------------------------------------------------------------------------------=
