
     Program PWSCF v.7.4 starts on 25Oct2025 at 13:42:27 

     This program is part of the open-source Quantum ESPRESSO suite
     for quantum simulation of materials; please cite
         "P. Giannozzi et al., J. Phys.:Condens. Matter 21 395502 (2009);
         "P. Giannozzi et al., J. Phys.:Condens. Matter 29 465901 (2017);
         "P. Giannozzi et al., J. Chem. Phys. 152 154105 (2020);
          URL http://www.quantum-espresso.org", 
     in publications or presentations arising from this work. More details at
     http://www.quantum-espresso.org/quote

     Parallel version (MPI & OpenMP), running on       8 processor cores
     Number of MPI processes:                 8
     Threads/MPI process:                     1

     MPI processes distributed on     1 nodes
     197535 MiB available memory on the printing compute node when the environment starts

     Reading input from TiFe_relaxed.in

     Current dimensions of program PWSCF are:
     Max number of different atomic species (ntypx) = 10
     Max number of k-points (npk) =  40000
     Max angular momentum in pseudopotentials (lmaxx) =  4
     file Fe.pbe-spn-kjpaw_psl.0.2.1.UPF: wavefunction(s)  3D renormalized

     IMPORTANT: XC functional enforced from input :
     Exchange-correlation= PBE
                           (   1   4   3   4   0   0   0)
     Any further DFT definition will be discarded
     Please, verify this is what you really want

     Message from routine setup:
     using ibrav=0 with symmetry is DISCOURAGED, use correct ibrav instead

     R & G space division:  proc/nbgrp/npool/nimage =       8
     Subspace diagonalization in iterative solution of the eigenvalue problem:
     a serial algorithm will be used


     Parallelization info
     --------------------
     sticks:   dense  smooth     PW     G-vecs:    dense   smooth      PW
     Min         532     151     43                26154     3989     617
     Max         533     152     44                26155     3993     620
     Sum        4257    1209    349               209233    31919    4945

     Using Slab Decomposition



     bravais-lattice index     =            0
     lattice parameter (alat)  =       5.5533  a.u.
     unit-cell volume          =     171.2590 (a.u.)^3
     number of atoms/cell      =            2
     number of atomic types    =            2
     number of electrons       =        28.00
     number of Kohn-Sham states=           18
     kinetic-energy cutoff     =     124.0000  Ry
     charge density cutoff     =    1736.0000  Ry
     scf convergence threshold =      1.0E-08
     mixing beta               =       0.7000
     number of iterations used =            8  plain     mixing
     energy convergence thresh.=      1.0E-04
     force convergence thresh. =      1.0E-03
     press convergence thresh. =      5.0E-01
     Exchange-correlation= PBE
                           (   1   4   3   4   0   0   0)
     nstep                     =           50


     celldm(1)=   5.553300  celldm(2)=   0.000000  celldm(3)=   0.000000
     celldm(4)=   0.000000  celldm(5)=   0.000000  celldm(6)=   0.000000

     crystal axes: (cart. coord. in units of alat)
               a(1) = (   1.000000   0.000000   0.000000 )  
               a(2) = (   0.000000   1.000000   0.000000 )  
               a(3) = (   0.000000   0.000000   1.000000 )  

     reciprocal axes: (cart. coord. in units 2 pi/alat)
               b(1) = (  1.000000  0.000000  0.000000 )  
               b(2) = (  0.000000  1.000000  0.000000 )  
               b(3) = (  0.000000  0.000000  1.000000 )  


     PseudoPot. # 1 for Fe read from file:
     ../../pseudos/Fe.pbe-spn-kjpaw_psl.0.2.1.UPF
     MD5 check sum: e86618425769142926afa95317d90200
     Pseudo is Projector augmented-wave + core cor, Zval = 16.0
     Generated using "atomic" code by A. Dal Corso  v.5.0.99 svn rev. 10869
     Shape of augmentation charge: PSQ
     Using radial grid of 1191 points,  6 beta functions with: 
                l(1) =   0
                l(2) =   0
                l(3) =   1
                l(4) =   1
                l(5) =   2
                l(6) =   2
     Q(r) pseudized with 0 coefficients 


     PseudoPot. # 2 for Ti read from file:
     ../../pseudos/ti_pbe_v1.4.uspp.F.UPF
     MD5 check sum: 88a00a6731bd790ddea75d31a80cb452
     Pseudo is Ultrasoft + core correction, Zval = 12.0
     Generated by new atomic code, or converted to UPF format
     Using radial grid of  851 points,  6 beta functions with: 
                l(1) =   0
                l(2) =   0
                l(3) =   1
                l(4) =   1
                l(5) =   2
                l(6) =   2
     Q(r) pseudized with  6 coefficients,  rinner =    1.000   1.000   1.000
                                                       1.000   1.000

     atomic species   valence    mass     pseudopotential
     Fe               16.00    55.84500     Fe( 1.00)
     Ti               12.00    47.86700     Ti( 1.00)

     48 Sym. Ops., with inversion, found



   Cartesian axes

     site n.     atom                  positions (alat units)
         1        Fe     tau(   1) = (   0.5000000   0.5000000   0.5000000  )
         2        Ti     tau(   2) = (   0.0000000   0.0000000   0.0000000  )

     number of k points=    56  Marzari-Vanderbilt smearing, width (Ry)=  0.0050
                       cart. coord. in units 2pi/alat
        k(    1) = (   0.0000000   0.0000000   0.0000000), wk =   0.0015026
        k(    2) = (   0.0000000   0.0000000   0.0909091), wk =   0.0090158
        k(    3) = (   0.0000000   0.0000000   0.1818182), wk =   0.0090158
        k(    4) = (   0.0000000   0.0000000   0.2727273), wk =   0.0090158
        k(    5) = (   0.0000000   0.0000000   0.3636364), wk =   0.0090158
        k(    6) = (   0.0000000   0.0000000   0.4545455), wk =   0.0090158
        k(    7) = (   0.0000000   0.0909091   0.0909091), wk =   0.0180316
        k(    8) = (   0.0000000   0.0909091   0.1818182), wk =   0.0360631
        k(    9) = (   0.0000000   0.0909091   0.2727273), wk =   0.0360631
        k(   10) = (   0.0000000   0.0909091   0.3636364), wk =   0.0360631
        k(   11) = (   0.0000000   0.0909091   0.4545455), wk =   0.0360631
        k(   12) = (   0.0000000   0.1818182   0.1818182), wk =   0.0180316
        k(   13) = (   0.0000000   0.1818182   0.2727273), wk =   0.0360631
        k(   14) = (   0.0000000   0.1818182   0.3636364), wk =   0.0360631
        k(   15) = (   0.0000000   0.1818182   0.4545455), wk =   0.0360631
        k(   16) = (   0.0000000   0.2727273   0.2727273), wk =   0.0180316
        k(   17) = (   0.0000000   0.2727273   0.3636364), wk =   0.0360631
        k(   18) = (   0.0000000   0.2727273   0.4545455), wk =   0.0360631
        k(   19) = (   0.0000000   0.3636364   0.3636364), wk =   0.0180316
        k(   20) = (   0.0000000   0.3636364   0.4545455), wk =   0.0360631
        k(   21) = (   0.0000000   0.4545455   0.4545455), wk =   0.0180316
        k(   22) = (   0.0909091   0.0909091   0.0909091), wk =   0.0120210
        k(   23) = (   0.0909091   0.0909091   0.1818182), wk =   0.0360631
        k(   24) = (   0.0909091   0.0909091   0.2727273), wk =   0.0360631
        k(   25) = (   0.0909091   0.0909091   0.3636364), wk =   0.0360631
        k(   26) = (   0.0909091   0.0909091   0.4545455), wk =   0.0360631
        k(   27) = (   0.0909091   0.1818182   0.1818182), wk =   0.0360631
        k(   28) = (   0.0909091   0.1818182   0.2727273), wk =   0.0721262
        k(   29) = (   0.0909091   0.1818182   0.3636364), wk =   0.0721262
        k(   30) = (   0.0909091   0.1818182   0.4545455), wk =   0.0721262
        k(   31) = (   0.0909091   0.2727273   0.2727273), wk =   0.0360631
        k(   32) = (   0.0909091   0.2727273   0.3636364), wk =   0.0721262
        k(   33) = (   0.0909091   0.2727273   0.4545455), wk =   0.0721262
        k(   34) = (   0.0909091   0.3636364   0.3636364), wk =   0.0360631
        k(   35) = (   0.0909091   0.3636364   0.4545455), wk =   0.0721262
        k(   36) = (   0.0909091   0.4545455   0.4545455), wk =   0.0360631
        k(   37) = (   0.1818182   0.1818182   0.1818182), wk =   0.0120210
        k(   38) = (   0.1818182   0.1818182   0.2727273), wk =   0.0360631
        k(   39) = (   0.1818182   0.1818182   0.3636364), wk =   0.0360631
        k(   40) = (   0.1818182   0.1818182   0.4545455), wk =   0.0360631
        k(   41) = (   0.1818182   0.2727273   0.2727273), wk =   0.0360631
        k(   42) = (   0.1818182   0.2727273   0.3636364), wk =   0.0721262
        k(   43) = (   0.1818182   0.2727273   0.4545455), wk =   0.0721262
        k(   44) = (   0.1818182   0.3636364   0.3636364), wk =   0.0360631
        k(   45) = (   0.1818182   0.3636364   0.4545455), wk =   0.0721262
        k(   46) = (   0.1818182   0.4545455   0.4545455), wk =   0.0360631
        k(   47) = (   0.2727273   0.2727273   0.2727273), wk =   0.0120210
        k(   48) = (   0.2727273   0.2727273   0.3636364), wk =   0.0360631
        k(   49) = (   0.2727273   0.2727273   0.4545455), wk =   0.0360631
        k(   50) = (   0.2727273   0.3636364   0.3636364), wk =   0.0360631
        k(   51) = (   0.2727273   0.3636364   0.4545455), wk =   0.0721262
        k(   52) = (   0.2727273   0.4545455   0.4545455), wk =   0.0360631
        k(   53) = (   0.3636364   0.3636364   0.3636364), wk =   0.0120210
        k(   54) = (   0.3636364   0.3636364   0.4545455), wk =   0.0360631
        k(   55) = (   0.3636364   0.4545455   0.4545455), wk =   0.0360631
        k(   56) = (   0.4545455   0.4545455   0.4545455), wk =   0.0120210

     Dense  grid:   209233 G-vectors     FFT dimensions: (  75,  75,  75)

     Smooth grid:    31919 G-vectors     FFT dimensions: (  40,  40,  40)

     Estimated max dynamical RAM per process >     117.03 MB

     Estimated total dynamical RAM >     936.25 MB

     Check: negative core charge=   -0.000002

     Initial potential from superposition of free atoms

     starting charge      26.9995, renormalised to      28.0000

     negative rho (up, down):  1.347E-03 0.000E+00
     Starting wfcs are   23 randomized atomic wfcs
     Checking if some PAW data can be deallocated... 

     total cpu time spent up to now is        1.8 secs

     per-process dynamical memory:   142.7 Mb

     Self-consistent Calculation

     iteration #  1     ecut=   124.00 Ry     beta= 0.70
     Davidson diagonalization with overlap
     ethr =  1.00E-02,  avg # of iterations =  2.1

     negative rho (up, down):  7.937E-05 0.000E+00

     total cpu time spent up to now is        2.9 secs

     total energy              =    -434.89047275 Ry
     estimated scf accuracy    <      17.46535633 Ry

     iteration #  2     ecut=   124.00 Ry     beta= 0.70
     Davidson diagonalization with overlap
     ethr =  1.00E-02,  avg # of iterations =  6.0

     negative rho (up, down):  2.353E-05 0.000E+00

     total cpu time spent up to now is        4.6 secs

     total energy              =    -448.51249463 Ry
     estimated scf accuracy    <      66.10195194 Ry

     iteration #  3     ecut=   124.00 Ry     beta= 0.70
     Davidson diagonalization with overlap
     ethr =  1.00E-02,  avg # of iterations =  3.1

     negative rho (up, down):  2.377E-04 0.000E+00

     total cpu time spent up to now is        5.8 secs

     total energy              =    -448.59203340 Ry
     estimated scf accuracy    <      16.77106202 Ry

     iteration #  4     ecut=   124.00 Ry     beta= 0.70
     Davidson diagonalization with overlap
     ethr =  1.00E-02,  avg # of iterations =  2.2

     negative rho (up, down):  2.766E-04 0.000E+00

     total cpu time spent up to now is        7.0 secs

     total energy              =    -449.11252552 Ry
     estimated scf accuracy    <       4.68111793 Ry

     iteration #  5     ecut=   124.00 Ry     beta= 0.70
     Davidson diagonalization with overlap
     ethr =  1.00E-02,  avg # of iterations =  1.0

     negative rho (up, down):  3.285E-04 0.000E+00

     total cpu time spent up to now is        8.0 secs

     total energy              =    -449.11683000 Ry
     estimated scf accuracy    <       4.27451567 Ry

     iteration #  6     ecut=   124.00 Ry     beta= 0.70
     Davidson diagonalization with overlap
     ethr =  1.00E-02,  avg # of iterations =  1.0

     negative rho (up, down):  1.118E-03 0.000E+00

     total cpu time spent up to now is        9.0 secs

     total energy              =    -447.89068457 Ry
     estimated scf accuracy    <       4.50163493 Ry

     iteration #  7     ecut=   124.00 Ry     beta= 0.70
     Davidson diagonalization with overlap
     ethr =  1.00E-02,  avg # of iterations =  3.4

     negative rho (up, down):  1.015E-03 0.000E+00

     total cpu time spent up to now is       10.1 secs

     total energy              =    -448.58840447 Ry
     estimated scf accuracy    <       3.89651472 Ry

     iteration #  8     ecut=   124.00 Ry     beta= 0.70
     Davidson diagonalization with overlap
     ethr =  1.00E-02,  avg # of iterations =  1.0

     negative rho (up, down):  7.976E-04 0.000E+00

     total cpu time spent up to now is       11.1 secs

     total energy              =    -448.43997417 Ry
     estimated scf accuracy    <       1.27715295 Ry

     iteration #  9     ecut=   124.00 Ry     beta= 0.70
     Davidson diagonalization with overlap
     ethr =  4.56E-03,  avg # of iterations =  1.9

     negative rho (up, down):  7.977E-04 0.000E+00

     total cpu time spent up to now is       12.2 secs

     total energy              =    -448.60539805 Ry
     estimated scf accuracy    <       0.26863249 Ry

     iteration # 10     ecut=   124.00 Ry     beta= 0.70
     Davidson diagonalization with overlap
     ethr =  9.59E-04,  avg # of iterations =  1.3

     negative rho (up, down):  8.075E-04 0.000E+00

     total cpu time spent up to now is       13.1 secs

     total energy              =    -448.61289738 Ry
     estimated scf accuracy    <       0.28159432 Ry

     iteration # 11     ecut=   124.00 Ry     beta= 0.70
     Davidson diagonalization with overlap
     ethr =  9.59E-04,  avg # of iterations =  1.0

     negative rho (up, down):  7.617E-04 0.000E+00

     total cpu time spent up to now is       14.1 secs

     total energy              =    -448.67957078 Ry
     estimated scf accuracy    <       0.34549008 Ry

     iteration # 12     ecut=   124.00 Ry     beta= 0.70
     Davidson diagonalization with overlap
     ethr =  9.59E-04,  avg # of iterations =  1.8

     negative rho (up, down):  7.932E-04 0.000E+00

     total cpu time spent up to now is       15.1 secs

     total energy              =    -448.62277485 Ry
     estimated scf accuracy    <       1.28404054 Ry

     iteration # 13     ecut=   124.00 Ry     beta= 0.70
     Davidson diagonalization with overlap
     ethr =  9.59E-04,  avg # of iterations =  1.2

     negative rho (up, down):  9.274E-04 0.000E+00

     total cpu time spent up to now is       16.1 secs

     total energy              =    -448.63537755 Ry
     estimated scf accuracy    <       0.58154385 Ry

     iteration # 14     ecut=   124.00 Ry     beta= 0.70
     Davidson diagonalization with overlap
     ethr =  9.59E-04,  avg # of iterations =  1.0

     negative rho (up, down):  1.025E-03 0.000E+00

     total cpu time spent up to now is       17.0 secs

     total energy              =    -448.61055071 Ry
     estimated scf accuracy    <       0.50368914 Ry

     iteration # 15     ecut=   124.00 Ry     beta= 0.70
     Davidson diagonalization with overlap
     ethr =  9.59E-04,  avg # of iterations =  1.0

     negative rho (up, down):  1.032E-03 0.000E+00

     total cpu time spent up to now is       18.0 secs

     total energy              =    -448.61143942 Ry
     estimated scf accuracy    <       0.31963621 Ry

     iteration # 16     ecut=   124.00 Ry     beta= 0.70
     Davidson diagonalization with overlap
     ethr =  9.59E-04,  avg # of iterations =  1.0

     negative rho (up, down):  1.077E-03 0.000E+00

     total cpu time spent up to now is       18.9 secs

     total energy              =    -448.59313187 Ry
     estimated scf accuracy    <       0.28283031 Ry

     iteration # 17     ecut=   124.00 Ry     beta= 0.70
     Davidson diagonalization with overlap
     ethr =  9.59E-04,  avg # of iterations =  1.0

     negative rho (up, down):  1.074E-03 0.000E+00

     total cpu time spent up to now is       19.9 secs

     total energy              =    -448.60188466 Ry
     estimated scf accuracy    <       0.07727334 Ry

     iteration # 18     ecut=   124.00 Ry     beta= 0.70
     Davidson diagonalization with overlap
     ethr =  2.76E-04,  avg # of iterations =  1.6

     negative rho (up, down):  9.925E-04 0.000E+00

     total cpu time spent up to now is       20.8 secs

     total energy              =    -448.58361171 Ry
     estimated scf accuracy    <       0.14906512 Ry

     iteration # 19     ecut=   124.00 Ry     beta= 0.70
     Davidson diagonalization with overlap
     ethr =  2.76E-04,  avg # of iterations =  1.1

     negative rho (up, down):  9.436E-04 0.000E+00

     total cpu time spent up to now is       21.9 secs

     total energy              =    -448.59412596 Ry
     estimated scf accuracy    <       0.04848604 Ry

     iteration # 20     ecut=   124.00 Ry     beta= 0.70
     Davidson diagonalization with overlap
     ethr =  1.73E-04,  avg # of iterations =  1.1

     negative rho (up, down):  1.023E-03 0.000E+00

     total cpu time spent up to now is       22.8 secs

     total energy              =    -448.57755582 Ry
     estimated scf accuracy    <       0.17402921 Ry

     iteration # 21     ecut=   124.00 Ry     beta= 0.70
     Davidson diagonalization with overlap
     ethr =  1.73E-04,  avg # of iterations =  2.1

     negative rho (up, down):  1.012E-03 0.000E+00

     total cpu time spent up to now is       23.8 secs

     total energy              =    -448.58650556 Ry
     estimated scf accuracy    <       0.00384583 Ry

     iteration # 22     ecut=   124.00 Ry     beta= 0.70
     Davidson diagonalization with overlap
     ethr =  1.37E-05,  avg # of iterations =  4.6

     negative rho (up, down):  1.004E-03 0.000E+00

     total cpu time spent up to now is       24.9 secs

     total energy              =    -448.58691254 Ry
     estimated scf accuracy    <       0.00198474 Ry

     iteration # 23     ecut=   124.00 Ry     beta= 0.70
     Davidson diagonalization with overlap
     ethr =  7.09E-06,  avg # of iterations =  1.5

     negative rho (up, down):  1.006E-03 0.000E+00

     total cpu time spent up to now is       25.9 secs

     total energy              =    -448.58700272 Ry
     estimated scf accuracy    <       0.00176934 Ry

     iteration # 24     ecut=   124.00 Ry     beta= 0.70
     Davidson diagonalization with overlap
     ethr =  6.32E-06,  avg # of iterations =  1.0

     negative rho (up, down):  9.532E-04 0.000E+00

     total cpu time spent up to now is       26.8 secs

     total energy              =    -448.58622430 Ry
     estimated scf accuracy    <       0.00189335 Ry

     iteration # 25     ecut=   124.00 Ry     beta= 0.70
     Davidson diagonalization with overlap
     ethr =  6.32E-06,  avg # of iterations =  2.5

     negative rho (up, down):  9.519E-04 0.000E+00

     total cpu time spent up to now is       28.0 secs

     total energy              =    -448.58664002 Ry
     estimated scf accuracy    <       0.00120786 Ry

     iteration # 26     ecut=   124.00 Ry     beta= 0.70
     Davidson diagonalization with overlap
     ethr =  4.31E-06,  avg # of iterations =  1.0

     negative rho (up, down):  9.350E-04 0.000E+00

     total cpu time spent up to now is       29.0 secs

     total energy              =    -448.58685540 Ry
     estimated scf accuracy    <       0.00115498 Ry

     iteration # 27     ecut=   124.00 Ry     beta= 0.70
     Davidson diagonalization with overlap
     ethr =  4.12E-06,  avg # of iterations =  2.0

     negative rho (up, down):  9.665E-04 0.000E+00

     total cpu time spent up to now is       30.0 secs

     total energy              =    -448.58628947 Ry
     estimated scf accuracy    <       0.00358737 Ry

     iteration # 28     ecut=   124.00 Ry     beta= 0.70
     Davidson diagonalization with overlap
     ethr =  4.12E-06,  avg # of iterations =  2.0

     negative rho (up, down):  9.722E-04 0.000E+00

     total cpu time spent up to now is       31.1 secs

     total energy              =    -448.58652077 Ry
     estimated scf accuracy    <       0.00004730 Ry

     iteration # 29     ecut=   124.00 Ry     beta= 0.70
     Davidson diagonalization with overlap
     ethr =  1.69E-07,  avg # of iterations =  4.7

     negative rho (up, down):  9.640E-04 0.000E+00

     total cpu time spent up to now is       32.4 secs

     total energy              =    -448.58653251 Ry
     estimated scf accuracy    <       0.00024121 Ry

     iteration # 30     ecut=   124.00 Ry     beta= 0.70
     Davidson diagonalization with overlap
     ethr =  1.69E-07,  avg # of iterations =  3.7

     negative rho (up, down):  9.643E-04 0.000E+00

     total cpu time spent up to now is       33.6 secs

     total energy              =    -448.58655214 Ry
     estimated scf accuracy    <       0.00000020 Ry

     iteration # 31     ecut=   124.00 Ry     beta= 0.70
     Davidson diagonalization with overlap
     ethr =  7.22E-10,  avg # of iterations =  5.8

     negative rho (up, down):  9.639E-04 0.000E+00

     total cpu time spent up to now is       35.1 secs

     total energy              =    -448.58655245 Ry
     estimated scf accuracy    <       0.00000110 Ry

     iteration # 32     ecut=   124.00 Ry     beta= 0.70
     Davidson diagonalization with overlap
     ethr =  7.22E-10,  avg # of iterations =  3.7

     negative rho (up, down):  9.638E-04 0.000E+00

     total cpu time spent up to now is       36.3 secs

     total energy              =    -448.58655251 Ry
     estimated scf accuracy    <       0.00000016 Ry

     iteration # 33     ecut=   124.00 Ry     beta= 0.70
     Davidson diagonalization with overlap
     ethr =  5.58E-10,  avg # of iterations =  2.1

     negative rho (up, down):  9.641E-04 0.000E+00

     total cpu time spent up to now is       37.3 secs

     total energy              =    -448.58655247 Ry
     estimated scf accuracy    <       0.00000034 Ry

     iteration # 34     ecut=   124.00 Ry     beta= 0.70
     Davidson diagonalization with overlap
     ethr =  5.58E-10,  avg # of iterations =  2.0

     negative rho (up, down):  9.642E-04 0.000E+00

     total cpu time spent up to now is       38.3 secs

     total energy              =    -448.58655249 Ry
     estimated scf accuracy    <       0.00000001 Ry

     iteration # 35     ecut=   124.00 Ry     beta= 0.70
     Davidson diagonalization with overlap
     ethr =  5.03E-11,  avg # of iterations =  4.2

     negative rho (up, down):  9.641E-04 0.000E+00

     total cpu time spent up to now is       39.6 secs

     total energy              =    -448.58655249 Ry
     estimated scf accuracy    <       0.00000003 Ry

     iteration # 36     ecut=   124.00 Ry     beta= 0.70
     Davidson diagonalization with overlap
     ethr =  5.03E-11,  avg # of iterations =  3.8

     negative rho (up, down):  9.641E-04 0.000E+00

     total cpu time spent up to now is       40.7 secs

     total energy              =    -448.58655249 Ry
     estimated scf accuracy    <       0.00000001 Ry

     iteration # 37     ecut=   124.00 Ry     beta= 0.70
     Davidson diagonalization with overlap
     ethr =  3.67E-11,  avg # of iterations =  1.1

     negative rho (up, down):  9.642E-04 0.000E+00

     total cpu time spent up to now is       41.8 secs

     End of self-consistent calculation

          k = 0.0000 0.0000 0.0000 (  3911 PWs)   bands (ev):

   -69.2103 -39.1519 -35.2713 -35.2713 -35.2713 -15.2461 -15.2461 -15.2461
    10.1528  13.8638  13.8638  16.6568  16.6568  16.6568  18.9982  18.9982
    20.9365  20.9365

          k = 0.0000 0.0000 0.0909 (  3947 PWs)   bands (ev):

   -69.2100 -39.1497 -35.2739 -35.2710 -35.2710 -15.2754 -15.2443 -15.2443
    10.3257  13.9470  13.9536  16.6441  16.6441  16.6947  18.8926  19.0379
    20.6857  20.6857

          k = 0.0000 0.0000 0.1818 (  3964 PWs)   bands (ev):

   -69.2093 -39.1440 -35.2806 -35.2699 -35.2699 -15.3533 -15.2397 -15.2397
    10.8272  14.1866  14.1905  16.6148  16.6148  16.8008  18.5874  19.1278
    20.1021  20.1021

          k = 0.0000 0.0000 0.2727 (  3988 PWs)   bands (ev):

   -69.2083 -39.1366 -35.2894 -35.2686 -35.2686 -15.4541 -15.2335 -15.2335
    11.6057  14.4523  14.5738  16.5899  16.5899  16.9516  18.1202  19.1616
    19.4563  19.4563

          k = 0.0000 0.0000 0.3636 (  4008 PWs)   bands (ev):

   -69.2074 -39.1297 -35.2974 -35.2673 -35.2673 -15.5456 -15.2278 -15.2278
    12.5660  14.5651  15.0485  16.5850  16.5850  17.1052  17.5652  18.9274
    18.9274  18.9715

          k = 0.0000 0.0000 0.4545 (  3992 PWs)   bands (ev):

   -69.2069 -39.1256 -35.3021 -35.2666 -35.2666 -15.5994 -15.2245 -15.2245
    13.5347  14.3044  15.4744  16.5939  16.5939  17.0902  17.2053  18.6282
    18.6282  18.6588

          k = 0.0000 0.0909 0.0909 (  3966 PWs)   bands (ev):

   -69.2097 -39.1475 -35.2748 -35.2724 -35.2706 -15.2765 -15.2702 -15.2425
    10.4951  14.0265  14.0436  16.5616  16.6235  16.7909  18.8774  19.0086
    20.4103  20.4352

          k = 0.0000 0.0909 0.1818 (  3978 PWs)   bands (ev):

   -69.2090 -39.1414 -35.2811 -35.2723 -35.2696 -15.3509 -15.2676 -15.2376
    10.9856  14.2440  14.2906  16.4813  16.5732  16.9084  18.6426  19.0871
    19.8666  19.9000

          k = 0.0000 0.0909 0.2727 (  3995 PWs)   bands (ev):

   -69.2080 -39.1335 -35.2900 -35.2716 -35.2682 -15.4506 -15.2606 -15.2312
    11.7434  14.5128  14.6445  16.4377  16.5167  16.9935  18.2447  19.0577
    19.3653  19.4001

          k = 0.0000 0.0909 0.3636 (  3991 PWs)   bands (ev):

   -69.2071 -39.1262 -35.2982 -35.2708 -35.2670 -15.5411 -15.2541 -15.2253
    12.6707  14.6170  15.0808  16.4435  16.4656  16.9997  17.7899  18.6459
    19.0664  19.2132

          k = 0.0000 0.0909 0.4545 (  3999 PWs)   bands (ev):

   -69.2066 -39.1219 -35.3030 -35.2704 -35.2663 -15.5944 -15.2503 -15.2217
    13.5943  14.3519  15.4692  16.3968  16.4805  16.9451  17.4633  18.3527
    18.9323  19.0197

          k = 0.0000 0.1818 0.1818 (  3972 PWs)   bands (ev):

   -69.2082 -39.1345 -35.2840 -35.2772 -35.2686 -15.3519 -15.3343 -15.2321
    11.4401  14.3900  14.5687  16.3070  16.4778  16.9857  18.6948  19.0458
    19.3496  19.5758

          k = 0.0000 0.1818 0.2727 (  4003 PWs)   bands (ev):

   -69.2073 -39.1253 -35.2920 -35.2794 -35.2673 -15.4413 -15.3326 -15.2250
    12.1275  14.5565  14.9462  16.1858  16.3868  16.9101  18.5208  18.8014
    19.2048  19.3971

          k = 0.0000 0.1818 0.3636 (  3997 PWs)   bands (ev):

   -69.2064 -39.1169 -35.3004 -35.2802 -35.2661 -15.5291 -15.3242 -15.2184
    12.9354  14.5943  15.3322  16.1499  16.3572  16.7002  18.2182  18.4617
    19.3302  19.4170

          k = 0.0000 0.1818 0.4545 (  3990 PWs)   bands (ev):

   -69.2059 -39.1119 -35.3055 -35.2806 -35.2654 -15.5809 -15.3192 -15.2144
    13.6841  14.3630  15.6125  16.2009  16.3901  16.4819  18.0480  18.2166
    19.3519  19.5140

          k = 0.0000 0.2727 0.2727 (  4000 PWs)   bands (ev):

   -69.2063 -39.1146 -35.2961 -35.2880 -35.2661 -15.4378 -15.4172 -15.2168
    12.6688  14.5348  15.3963  15.9775  16.3399  16.6425  18.5788  18.7502
    19.1052  19.5703

          k = 0.0000 0.2727 0.3636 (  3993 PWs)   bands (ev):

   -69.2054 -39.1047 -35.3035 -35.2923 -35.2649 -15.5135 -15.4149 -15.2093
    13.2265  14.4165  15.8407  15.8678  16.3180  16.4951  18.3958  18.7291
    19.2748  19.8464

          k = 0.0000 0.2727 0.4545 (  3996 PWs)   bands (ev):

   -69.2049 -39.0988 -35.3088 -35.2939 -35.2643 -15.5633 -15.4084 -15.2048
    13.6460  14.2282  15.8808  16.0550  16.0845  16.8466  18.1510  18.6844
    19.4869  20.0941

          k = 0.0000 0.3636 0.3636 (  4002 PWs)   bands (ev):

   -69.2046 -39.0934 -35.3073 -35.3025 -35.2639 -15.5042 -15.4923 -15.2009
    13.4198  14.2078  15.6811  15.9708  16.4456  16.8939  18.5222  19.0880
    19.1103  20.2512

          k = 0.0000 0.3636 0.4545 (  3999 PWs)   bands (ev):

   -69.2040 -39.0867 -35.3119 -35.3061 -35.2632 -15.5470 -15.4894 -15.1960
    13.5038  14.0682  15.6293  15.7309  16.8140  17.5390  18.2827  19.1482
    19.3229  20.5544

          k = 0.0000 0.4545 0.4545 (  3998 PWs)   bands (ev):

   -69.2035 -39.0794 -35.3139 -35.3132 -35.2626 -15.5381 -15.5364 -15.1907
    13.3945  13.9723  15.5084  15.5425  17.5106  17.9878  18.6669  18.8520
    19.4119  20.8261

          k = 0.0909 0.0909 0.0909 (  3959 PWs)   bands (ev):

   -69.2094 -39.1451 -35.2744 -35.2744 -35.2711 -15.2769 -15.2684 -15.2684
    10.6615  14.1185  14.1185  16.5391  16.5391  16.8681  18.9294  18.9294
    19.9928  20.6651

          k = 0.0909 0.0909 0.1818 (  3966 PWs)   bands (ev):

   -69.2087 -39.1388 -35.2813 -35.2733 -35.2710 -15.3483 -15.2672 -15.2636
    11.1426  14.3361  14.3554  16.4286  16.4796  16.9503  18.7011  19.0492
    19.5188  20.0788

          k = 0.0909 0.0909 0.2727 (  3992 PWs)   bands (ev):

   -69.2077 -39.1304 -35.2905 -35.2719 -35.2707 -15.4471 -15.2591 -15.2574
    11.8826  14.6168  14.6736  16.3700  16.3987  16.9454  18.3564  19.0005
    19.3236  19.4428

          k = 0.0909 0.0909 0.3636 (  3994 PWs)   bands (ev):

   -69.2068 -39.1228 -35.2988 -35.2707 -35.2704 -15.5368 -15.2516 -15.2516
    12.7810  14.7008  15.0813  16.2989  16.4005  16.8595  17.9712  18.7163
    18.9368  19.4202

          k = 0.0909 0.0909 0.4545 (  4007 PWs)   bands (ev):

   -69.2063 -39.1183 -35.3038 -35.2702 -35.2699 -15.5896 -15.2481 -15.2471
    13.6656  14.4197  15.4383  16.1745  16.5156  16.7699  17.6949  18.4315
    18.6597  19.5237

          k = 0.0909 0.1818 0.1818 (  3984 PWs)   bands (ev):

   -69.2080 -39.1316 -35.2836 -35.2780 -35.2712 -15.3487 -15.3325 -15.2595
    11.5926  14.4938  14.6188  16.2700  16.3702  16.9131  18.7644  19.0172
    19.2358  19.7948

          k = 0.0909 0.1818 0.2727 (  3994 PWs)   bands (ev):

   -69.2070 -39.1222 -35.2919 -35.2795 -35.2705 -15.4380 -15.3301 -15.2518
    12.2705  14.6756  14.9647  16.1421  16.2715  16.7315  18.6109  18.9228
    19.2407  19.4559

          k = 0.0909 0.1818 0.3636 (  4001 PWs)   bands (ev):

   -69.2061 -39.1136 -35.3007 -35.2800 -35.2697 -15.5253 -15.3217 -15.2447
    13.0616  14.7215  15.2859  16.0686  16.2634  16.5479  18.3724  18.5771
    19.1012  19.7199

          k = 0.0909 0.1818 0.4545 (  3993 PWs)   bands (ev):

   -69.2056 -39.1084 -35.3060 -35.2802 -35.2692 -15.5768 -15.3167 -15.2405
    13.7875  14.4740  15.5175  16.0018  16.3647  16.4909  18.1991  18.2872
    18.8991  20.1084

          k = 0.0909 0.2727 0.2727 (  3989 PWs)   bands (ev):

   -69.2061 -39.1114 -35.2957 -35.2883 -35.2695 -15.4340 -15.4153 -15.2435
    12.8158  14.6587  15.4058  15.9390  16.2101  16.4306  18.6963  18.9063
    19.0873  19.7047

          k = 0.0909 0.2727 0.3636 (  3985 PWs)   bands (ev):

   -69.2052 -39.1015 -35.3033 -35.2922 -35.2686 -15.5103 -15.4125 -15.2357
    13.3703  14.5419  15.7742  15.8302  16.2030  16.3600  18.4780  18.8193
    19.1582  20.1172

          k = 0.0909 0.2727 0.4545 (  4006 PWs)   bands (ev):

   -69.2046 -39.0955 -35.3089 -35.2935 -35.2680 -15.5600 -15.4061 -15.2311
    13.7756  14.3545  15.7972  15.8477  16.1550  16.7541  18.1884  18.7887
    19.0873  20.6002

          k = 0.0909 0.3636 0.3636 (  3992 PWs)   bands (ev):

   -69.2043 -39.0903 -35.3068 -35.3024 -35.2675 -15.5011 -15.4904 -15.2274
    13.5656  14.3325  15.6506  15.8817  16.4032  16.7209  18.4860  18.9868
    19.1887  20.5636

          k = 0.0909 0.3636 0.4545 (  4002 PWs)   bands (ev):

   -69.2038 -39.0836 -35.3116 -35.3057 -35.2669 -15.5446 -15.4873 -15.2224
    13.6401  14.1966  15.5970  15.6797  16.7391  17.3611  18.2404  18.9494
    19.2815  20.7958

          k = 0.0909 0.4545 0.4545 (  3993 PWs)   bands (ev):

   -69.2033 -39.0765 -35.3134 -35.3128 -35.2662 -15.5360 -15.5345 -15.2173
    13.5314  14.1009  15.4860  15.5157  17.4523  17.8446  18.4160  18.5135
    19.4899  21.0193

          k = 0.1818 0.1818 0.1818 (  3989 PWs)   bands (ev):

   -69.2072 -39.1239 -35.2825 -35.2825 -35.2757 -15.3447 -15.3275 -15.3275
    12.0266  14.7610  14.7610  16.1712  16.1712  16.6504  18.9328  18.9328
    19.2929  20.0374

          k = 0.1818 0.1818 0.2727 (  3992 PWs)   bands (ev):

   -69.2063 -39.1139 -35.2921 -35.2810 -35.2777 -15.4292 -15.3259 -15.3210
    12.6697  14.9702  15.0333  16.0341  16.0388  16.3368  18.8049  19.0078
    19.4273  19.5988

          k = 0.1818 0.1818 0.3636 (  3994 PWs)   bands (ev):

   -69.2054 -39.1046 -35.3016 -35.2796 -35.2790 -15.5151 -15.3151 -15.3150
    13.3929  15.0074  15.2036  15.8991  16.0682  16.2649  18.6704  18.7433
    18.9523  20.1600

          k = 0.1818 0.1818 0.4545 (  3986 PWs)   bands (ev):

   -69.2049 -39.0991 -35.3073 -35.2797 -35.2788 -15.5658 -15.3114 -15.3085
    14.0172  14.6821  15.3921  15.7788  16.1845  16.4450  18.3322  18.5953
    18.6806  20.5298

          k = 0.1818 0.2727 0.2727 (  3994 PWs)   bands (ev):

   -69.2053 -39.1029 -35.2944 -35.2893 -35.2787 -15.4238 -15.4102 -15.3144
    13.2274  14.9964  15.4273  15.8397  15.9189  15.9976  18.8252  19.0096
    19.3284  20.0777

          k = 0.1818 0.2727 0.3636 (  3988 PWs)   bands (ev):

   -69.2045 -39.0928 -35.3031 -35.2918 -35.2783 -15.5017 -15.4060 -15.3061
    13.7701  14.8706  15.5749  15.7253  15.9737  16.0870  18.5905  18.8382
    19.2207  20.3803

          k = 0.1818 0.2727 0.4545 (  3991 PWs)   bands (ev):

   -69.2039 -39.0868 -35.3091 -35.2925 -35.2779 -15.5513 -15.4000 -15.3011
    14.1253  14.6660  15.5488  15.6706  16.0602  16.5356  18.2319  18.6757
    19.1297  20.6014

          k = 0.1818 0.3636 0.3636 (  3990 PWs)   bands (ev):

   -69.2036 -39.0819 -35.3055 -35.3022 -35.2773 -15.4929 -15.4852 -15.2979
    13.9820  14.6576  15.5747  15.6896  16.2719  16.2956  18.4622  18.6969
    19.4850  20.5435

          k = 0.1818 0.3636 0.4545 (  3993 PWs)   bands (ev):

   -69.2031 -39.0754 -35.3108 -35.3045 -35.2767 -15.5379 -15.4817 -15.2930
    14.0272  14.5323  15.5200  15.5675  16.4915  16.9250  18.1794  18.5402
    19.5616  20.7853

          k = 0.1818 0.4545 0.4545 (  4002 PWs)   bands (ev):

   -69.2026 -39.0686 -35.3120 -35.3116 -35.2760 -15.5305 -15.5294 -15.2882
    13.9234  14.4434  15.4329  15.4545  17.1746  17.2811  18.0690  18.2503
    19.7506  21.0765

          k = 0.2727 0.2727 0.2727 (  3998 PWs)   bands (ev):

   -69.2044 -39.0917 -35.2928 -35.2928 -35.2886 -15.4134 -15.4035 -15.4035
    13.7990  15.4441  15.4441  15.5182  15.7193  15.7193  18.8337  18.8337
    19.7983  19.7983

          k = 0.2727 0.2727 0.3636 (  3992 PWs)   bands (ev):

   -69.2035 -39.0814 -35.3030 -35.2913 -35.2908 -15.4906 -15.3975 -15.3973
    14.2965  15.1356  15.4426  15.6207  15.7209  15.9354  18.5785  18.6239
    19.6455  20.2947

          k = 0.2727 0.2727 0.4545 (  3990 PWs)   bands (ev):

   -69.2030 -39.0752 -35.3095 -35.2915 -35.2904 -15.5398 -15.3936 -15.3902
    14.5097  14.9115  15.4302  15.5701  15.9004  16.3710  18.1751  18.4970
    19.5914  20.6352

          k = 0.2727 0.3636 0.3636 (  3988 PWs)   bands (ev):

   -69.2027 -39.0709 -35.3037 -35.3021 -35.2902 -15.4822 -15.4785 -15.3893
    14.5957  15.0027  15.4917  15.5872  15.8170  16.0595  18.4143  18.4173
    19.9496  20.4946

          k = 0.2727 0.3636 0.4545 (  3992 PWs)   bands (ev):

   -69.2021 -39.0646 -35.3099 -35.3030 -35.2896 -15.5292 -15.4743 -15.3844
    14.5794  14.9171  15.4521  15.5076  16.1032  16.4659  18.0772  18.3312
    20.0120  20.8206

          k = 0.2727 0.4545 0.4545 (  4000 PWs)   bands (ev):

   -69.2016 -39.0583 -35.3102 -35.3100 -35.2888 -15.5232 -15.5227 -15.3800
    14.5067  14.8769  15.3854  15.4135  16.6254  16.6526  17.9060  18.1706
    20.1897  21.1136

          k = 0.3636 0.3636 0.3636 (  3999 PWs)   bands (ev):

   -69.2018 -39.0607 -35.3021 -35.3021 -35.3018 -15.4725 -15.4722 -15.4722
    14.9948  15.3300  15.4470  15.4470  15.8145  15.8145  18.2411  18.2411
    20.5002  20.5002

          k = 0.3636 0.3636 0.4545 (  4008 PWs)   bands (ev):

   -69.2013 -39.0547 -35.3090 -35.3018 -35.3011 -15.5212 -15.4685 -15.4665
    14.9931  15.1653  15.4767  15.6074  15.7984  16.1604  17.9824  18.1639
    20.5129  20.9126

          k = 0.3636 0.4545 0.4545 (  3994 PWs)   bands (ev):

   -69.2008 -39.0488 -35.3085 -35.3085 -35.3006 -15.5165 -15.5165 -15.4635
    15.1008  15.2495  15.3888  15.4963  16.0924  16.1437  17.8651  18.0301
    20.7353  21.1430

          k = 0.4545 0.4545 0.4545 (  3972 PWs)   bands (ev):

   -69.2003 -39.0431 -35.3076 -35.3075 -35.3075 -15.5128 -15.5128 -15.5124
    15.3317  15.4752  15.4752  15.7775  15.7775  15.8004  17.8552  17.8552
    21.1597  21.1597

     the Fermi energy is    17.5936 ev

!    total energy              =    -448.58655249 Ry
     estimated scf accuracy    <          7.2E-10 Ry
     smearing contrib. (-TS)   =       0.00005038 Ry
     internal energy E=F+TS    =    -448.58660287 Ry

     The total energy is F=E-TS. E is the sum of the following terms:
     one-electron contribution =    -151.34228263 Ry
     hartree contribution      =      91.61721392 Ry
     xc contribution           =     -52.88698661 Ry
     ewald contribution        =    -259.82070277 Ry
     one-center paw contrib.   =     -76.15384478 Ry

     convergence has been achieved in  37 iterations

     negative rho (up, down):  9.642E-04 0.000E+00

     Forces acting on atoms (cartesian axes, Ry/au):

     atom    1 type  1   force =     0.00000000    0.00000000    0.00000000
     atom    2 type  2   force =     0.00000000    0.00000000    0.00000000

     Total force =     0.000000     Total SCF correction =     0.000000


     Computing stress (Cartesian axis) and pressure


     negative rho (up, down):  9.642E-04 0.000E+00
          total   stress  (Ry/bohr**3)                   (kbar)     P=       31.49
   0.00021405   0.00000000   0.00000000           31.49        0.00        0.00
   0.00000000   0.00021405   0.00000000            0.00       31.49        0.00
   0.00000000   0.00000000   0.00021405            0.00        0.00       31.49


     BFGS Geometry Optimization
     Energy error            =      7.2E-02 Ry
     Gradient error          =      0.0E+00 Ry/Bohr
     Cell gradient error     =      3.3E+02 kbar

     number of scf cycles    =   1
     number of bfgs steps    =   0

     enthalpy           new  =    -448.1651138087 Ry

     new trust radius        =       0.1470134571 bohr
     new conv_thr            =       0.0000000100 Ry

     new unit-cell volume =    143.99107 a.u.^3 (    21.33727 Ang^3 )
     density =      8.07122 g/cm^3

CELL_PARAMETERS (alat=  5.55330037)
   0.943830527   0.000000000   0.000000000
   0.000000000   0.943830527   0.000000000
   0.000000000   0.000000000   0.943830527

ATOMIC_POSITIONS (crystal)
Fe               0.5000000000        0.5000000000        0.5000000000
Ti               0.0000000000        0.0000000000        0.0000000000



     Writing config-only to output data dir ./TiFe.save/ :
     XML data file
     NEW-OLD atomic charge density approx. for the potential
     New effective cutoffs (rho, wfc): 1948.63  139.19

     Check: negative core charge=   -0.000001

     negative rho (up, down):  8.591E-04 0.000E+00

     total cpu time spent up to now is       43.9 secs

     per-process dynamical memory:   153.1 Mb

     Self-consistent Calculation

     iteration #  1     ecut=   124.00 Ry     beta= 0.70
     Davidson diagonalization with overlap
     ethr =  1.00E-06,  avg # of iterations = 10.8

     negative rho (up, down):  8.977E-04 0.000E+00

     total cpu time spent up to now is       46.4 secs

     total energy              =    -448.53807131 Ry
     estimated scf accuracy    <       0.00202485 Ry

     iteration #  2     ecut=   124.00 Ry     beta= 0.70
     Davidson diagonalization with overlap
     ethr =  7.23E-06,  avg # of iterations =  4.0

     negative rho (up, down):  9.127E-04 0.000E+00

     total cpu time spent up to now is       47.6 secs

     total energy              =    -448.53302639 Ry
     estimated scf accuracy    <       0.07069531 Ry

     iteration #  3     ecut=   124.00 Ry     beta= 0.70
     Davidson diagonalization with overlap
     ethr =  7.23E-06,  avg # of iterations =  4.2

     negative rho (up, down):  9.087E-04 0.000E+00

     total cpu time spent up to now is       48.9 secs

     total energy              =    -448.53974630 Ry
     estimated scf accuracy    <       0.00372322 Ry

     iteration #  4     ecut=   124.00 Ry     beta= 0.70
     Davidson diagonalization with overlap
     ethr =  7.23E-06,  avg # of iterations =  1.6

     negative rho (up, down):  9.179E-04 0.000E+00

     total cpu time spent up to now is       49.9 secs

     total energy              =    -448.53998444 Ry
     estimated scf accuracy    <       0.00029135 Ry

     iteration #  5     ecut=   124.00 Ry     beta= 0.70
     Davidson diagonalization with overlap
     ethr =  1.04E-06,  avg # of iterations =  3.2

     negative rho (up, down):  9.184E-04 0.000E+00

     total cpu time spent up to now is       51.0 secs

     total energy              =    -448.54001856 Ry
     estimated scf accuracy    <       0.00001264 Ry

     iteration #  6     ecut=   124.00 Ry     beta= 0.70
     Davidson diagonalization with overlap
     ethr =  4.51E-08,  avg # of iterations =  4.2

     negative rho (up, down):  9.187E-04 0.000E+00

     total cpu time spent up to now is       52.2 secs

     total energy              =    -448.54002212 Ry
     estimated scf accuracy    <       0.00000021 Ry

     iteration #  7     ecut=   124.00 Ry     beta= 0.70
     Davidson diagonalization with overlap
     ethr =  7.41E-10,  avg # of iterations =  5.1

     negative rho (up, down):  9.187E-04 0.000E+00

     total cpu time spent up to now is       53.6 secs

     total energy              =    -448.54002246 Ry
     estimated scf accuracy    <       0.00000081 Ry

     iteration #  8     ecut=   124.00 Ry     beta= 0.70
     Davidson diagonalization with overlap
     ethr =  7.41E-10,  avg # of iterations =  2.8

     negative rho (up, down):  9.188E-04 0.000E+00

     total cpu time spent up to now is       54.6 secs

     End of self-consistent calculation

          k = 0.0000 0.0000 0.0000 (  3911 PWs)   bands (ev):

   -65.4954 -34.9741 -31.5659 -31.5659 -31.5659 -10.9900 -10.9900 -10.9900
    13.5260  16.6664  16.6664  20.2517  20.2517  20.2517  23.1277  23.1277
    25.5797  25.5797

          k = 0.0000 0.0000 0.0963 (  3947 PWs)   bands (ev):

   -65.4947 -34.9713 -31.5690 -31.5650 -31.5650 -11.0437 -10.9874 -10.9874
    13.7303  16.7670  16.7980  20.2372  20.2372  20.2994  22.9849  23.1842
    25.2564  25.2564

          k = 0.0000 0.0000 0.1926 (  3964 PWs)   bands (ev):

   -65.4929 -34.9640 -31.5773 -31.5627 -31.5627 -11.1862 -10.9805 -10.9805
    14.3161  17.0624  17.1495  20.2059  20.2059  20.4333  22.5746  23.3228
    24.5101  24.5101

          k = 0.0000 0.0000 0.2890 (  3988 PWs)   bands (ev):

   -65.4906 -34.9546 -31.5878 -31.5596 -31.5596 -11.3690 -10.9714 -10.9714
    15.2047  17.5301  17.5921  20.1851  20.1851  20.6245  21.9529  23.4292
    23.6871  23.6871

          k = 0.0000 0.0000 0.3853 (  4008 PWs)   bands (ev):

   -65.4884 -34.9461 -31.5971 -31.5568 -31.5568 -11.5336 -10.9631 -10.9631
    16.2578  17.9174  18.1163  20.1944  20.1944  20.8208  21.2224  23.0098
    23.0098  23.3038

          k = 0.0000 0.0000 0.4816 (  3992 PWs)   bands (ev):

   -65.4871 -34.9412 -31.6025 -31.5552 -31.5552 -11.6299 -10.9581 -10.9581
    17.2382  17.8709  18.6541  20.2192  20.2192  20.5976  20.9498  22.6223
    22.6223  22.9936

          k = 0.0000 0.0963 0.0963 (  3966 PWs)   bands (ev):

   -65.4941 -34.9681 -31.5728 -31.5642 -31.5641 -11.0479 -11.0330 -10.9846
    13.9290  16.8750  16.9172  20.1268  20.2132  20.4291  22.9660  23.1451
    24.8975  24.9373

          k = 0.0000 0.0963 0.1926 (  3978 PWs)   bands (ev):

   -65.4923 -34.9594 -31.5816 -31.5635 -31.5619 -11.1821 -11.0307 -10.9771
    14.4971  17.1533  17.2691  20.0238  20.1568  20.5854  22.6503  23.2665
    24.2167  24.2418

          k = 0.0000 0.0963 0.2890 (  3995 PWs)   bands (ev):

   -65.4899 -34.9482 -31.5921 -31.5630 -31.5589 -11.3622 -11.0197 -10.9673
    15.3522  17.5688  17.7287  19.9744  20.0978  20.6973  22.1203  23.2765
    23.5952  23.6042

          k = 0.0000 0.0963 0.3853 (  3991 PWs)   bands (ev):

   -65.4878 -34.9381 -31.6012 -31.5629 -31.5561 -11.5244 -11.0095 -10.9583
    16.3523  17.9366  18.2086  19.9960  20.0427  20.6984  21.5284  22.7448
    23.1840  23.5179

          k = 0.0000 0.0963 0.4816 (  3999 PWs)   bands (ev):

   -65.4865 -34.9322 -31.6064 -31.5629 -31.5545 -11.6194 -11.0034 -10.9529
    17.2669  17.8925  18.6710  19.9472  20.0634  20.6095  21.1249  22.3971
    23.0222  23.3390

          k = 0.0000 0.1926 0.1926 (  3972 PWs)   bands (ev):

   -65.4905 -34.9471 -31.5916 -31.5668 -31.5597 -11.1883 -11.1467 -10.9681
    15.0063  17.3570  17.6408  19.7952  20.0517  20.6967  22.7262  23.2083
    23.5765  23.8183

          k = 0.0000 0.1926 0.2890 (  4003 PWs)   bands (ev):

   -65.4882 -34.9312 -31.6030 -31.5726 -31.5568 -11.3445 -11.1471 -10.9563
    15.7444  17.6131  18.1549  19.6408  19.9679  20.6010  22.4840  22.9300
    23.4232  23.5932

          k = 0.0000 0.1926 0.3853 (  3997 PWs)   bands (ev):

   -65.4860 -34.9166 -31.6122 -31.5791 -31.5542 -11.4999 -11.1325 -10.9454
    16.5473  17.7999  18.6543  19.6018  19.9724  20.3201  22.0896  22.5246
    23.6334  23.6537

          k = 0.0000 0.1926 0.4816 (  3990 PWs)   bands (ev):

   -65.4848 -34.9079 -31.6170 -31.5834 -31.5526 -11.5912 -11.1235 -10.9389
    17.1937  17.7619  18.9776  19.6839  20.0196  20.0620  21.8798  22.2375
    23.7645  23.7717

          k = 0.0000 0.2890 0.2890 (  4000 PWs)   bands (ev):

   -65.4859 -34.9087 -31.6162 -31.5862 -31.5541 -11.3403 -11.2919 -10.9418
    16.2376  17.6285  18.7546  19.3713  19.9847  20.2522  22.6562  22.7821
    23.3220  23.8235

          k = 0.0000 0.2890 0.3853 (  3993 PWs)   bands (ev):

   -65.4837 -34.8881 -31.6265 -31.6004 -31.5517 -11.4681 -11.2904 -10.9285
    16.6536  17.5782  19.2337  19.3433  19.8265  20.2761  22.4512  22.7649
    23.5848  24.1885

          k = 0.0000 0.2890 0.4816 (  3996 PWs)   bands (ev):

   -65.4825 -34.8758 -31.6312 -31.6103 -31.5502 -11.5542 -11.2780 -10.9205
    16.8926  17.4908  19.2588  19.4783  19.6750  20.7743  22.1774  22.6873
    23.9503  24.5159

          k = 0.0000 0.3853 0.3853 (  4002 PWs)   bands (ev):

   -65.4817 -34.8616 -31.6389 -31.6210 -31.5494 -11.4497 -11.4219 -10.9128
    16.6194  17.3675  18.9945  19.3766  20.1185  20.8618  22.6779  23.2149
    23.4126  24.7133

          k = 0.0000 0.3853 0.4816 (  3999 PWs)   bands (ev):

   -65.4804 -34.8458 -31.6446 -31.6349 -31.5480 -11.5202 -11.4175 -10.9035
    16.5576  17.2420  18.9316  19.0642  20.6033  21.6404  22.4182  23.3090
    23.7563  25.1082

          k = 0.0000 0.4816 0.4816 (  3998 PWs)   bands (ev):

   -65.4792 -34.8278 -31.6524 -31.6498 -31.5467 -11.5015 -11.4976 -10.8934
    16.3565  17.1004  18.7767  18.8216  21.4107  22.0725  23.0362  23.2668
    23.6509  25.4599

          k = 0.0963 0.0963 0.0963 (  3959 PWs)   bands (ev):

   -65.4934 -34.9644 -31.5720 -31.5720 -31.5601 -11.0504 -11.0304 -11.0304
    14.1232  17.0077  17.0077  20.0996  20.0996  20.5370  23.0379  23.0379
    24.3652  25.2315

          k = 0.0963 0.0963 0.1926 (  3966 PWs)   bands (ev):

   -65.4916 -34.9546 -31.5829 -31.5696 -31.5590 -11.1778 -11.0308 -11.0234
    14.6769  17.2717  17.3597  19.9580  20.0285  20.6529  22.7298  23.2146
    23.7613  24.4848

          k = 0.0963 0.0963 0.2890 (  3992 PWs)   bands (ev):

   -65.4893 -34.9418 -31.5947 -31.5664 -31.5599 -11.3555 -11.0169 -11.0142
    15.5043  17.6832  17.7909  19.8939  19.9333  20.6481  22.2690  23.1862
    23.5441  23.6791

          k = 0.0963 0.0963 0.3853 (  3994 PWs)   bands (ev):

   -65.4871 -34.9302 -31.6044 -31.5635 -31.5614 -11.5157 -11.0057 -11.0039
    16.4601  18.0703  18.1844  19.8132  19.9541  20.5242  21.7644  22.8817
    23.0356  23.7257

          k = 0.0963 0.0963 0.4816 (  4007 PWs)   bands (ev):

   -65.4858 -34.9234 -31.6098 -31.5625 -31.5618 -11.6096 -11.0006 -10.9962
    17.3234  17.9638  18.6254  19.6565  20.1299  20.3969  21.4139  22.5865
    22.6790  23.8965

          k = 0.0963 0.1926 0.1926 (  3984 PWs)   bands (ev):

   -65.4898 -34.9415 -31.5906 -31.5737 -31.5594 -11.1819 -11.1440 -11.0171
    15.1819  17.4989  17.7011  19.7506  19.8997  20.6168  22.8209  23.1696
    23.4150  24.1218

          k = 0.0963 0.1926 0.2890 (  3994 PWs)   bands (ev):

   -65.4875 -34.9245 -31.6030 -31.5756 -31.5609 -11.3380 -11.1430 -11.0043
    15.9095  17.7653  18.1810  19.5905  19.8021  20.3772  22.6088  23.0921
    23.4548  23.6886

          k = 0.0963 0.1926 0.3853 (  4001 PWs)   bands (ev):

   -65.4854 -34.9090 -31.6135 -31.5794 -31.5609 -11.4924 -11.1282 -10.9922
    16.6911  17.9637  18.5889  19.5126  19.8304  20.1307  22.2831  22.6836
    23.3121  24.0779

          k = 0.0963 0.1926 0.4816 (  3993 PWs)   bands (ev):

   -65.4841 -34.8998 -31.6192 -31.5827 -31.5602 -11.5831 -11.1192 -10.9849
    17.3150  17.9026  18.8175  19.4653  19.9215  20.1407  22.0659  22.3429
    23.0764  24.6150

          k = 0.0963 0.2890 0.2890 (  3989 PWs)   bands (ev):

   -65.4852 -34.9018 -31.6151 -31.5883 -31.5603 -11.3327 -11.2893 -10.9894
    16.4161  17.7883  18.7634  19.3296  19.7927  19.9868  22.8097  22.9690
    23.3037  24.0227

          k = 0.0963 0.2890 0.3853 (  3985 PWs)   bands (ev):

   -65.4831 -34.8809 -31.6261 -31.6011 -31.5588 -11.4621 -11.2866 -10.9756
    16.8266  17.7384  19.1581  19.2779  19.7045  20.0817  22.5592  22.8725
    23.4162  24.5716

          k = 0.0963 0.2890 0.4816 (  4006 PWs)   bands (ev):

   -65.4819 -34.8684 -31.6319 -31.6096 -31.5577 -11.5484 -11.2745 -10.9674
    17.0457  17.6471  19.1542  19.2597  19.7505  20.6338  22.2322  22.8152
    23.3628  25.1763

          k = 0.0963 0.3853 0.3853 (  3992 PWs)   bands (ev):

   -65.4810 -34.8549 -31.6377 -31.6213 -31.5567 -11.4443 -11.4194 -10.9603
    16.7905  17.5281  18.9605  19.2691  20.0718  20.6414  22.5943  23.2613
    23.3354  25.1432

          k = 0.0963 0.3853 0.4816 (  4002 PWs)   bands (ev):

   -65.4798 -34.8393 -31.6439 -31.6341 -31.5554 -11.5164 -11.4146 -10.9512
    16.7186  17.4038  18.8969  19.0065  20.5275  21.4295  22.3290  23.2401
    23.4636  25.3957

          k = 0.0963 0.4816 0.4816 (  3993 PWs)   bands (ev):

   -65.4786 -34.8218 -31.6511 -31.6488 -31.5540 -11.4988 -11.4953 -10.9415
    16.5202  17.2644  18.7550  18.7948  21.3587  21.9640  22.6144  22.7945
    23.7367  25.6673

          k = 0.1926 0.1926 0.1926 (  3989 PWs)   bands (ev):

   -65.4881 -34.9264 -31.5880 -31.5880 -31.5628 -11.1750 -11.1369 -11.1369
    15.6706  17.8722  17.8722  19.6333  19.6333  20.2890  23.0550  23.0550
    23.5082  24.4352

          k = 0.1926 0.1926 0.2890 (  3992 PWs)   bands (ev):

   -65.4858 -34.9067 -31.6043 -31.5846 -31.5696 -11.3211 -11.1355 -11.1275
    16.3550  18.1233  18.2972  19.4722  19.4808  19.8796  22.8793  23.2105
    23.6610  23.9156

          k = 0.1926 0.1926 0.3853 (  3994 PWs)   bands (ev):

   -65.4837 -34.8886 -31.6179 -31.5814 -31.5770 -11.4723 -11.1188 -11.1141
    17.0390  18.3985  18.4000  19.3289  19.5624  19.7864  22.6894  22.9476
    23.0614  24.6494

          k = 0.1926 0.1926 0.4816 (  3986 PWs)   bands (ev):

   -65.4824 -34.8778 -31.6255 -31.5818 -31.5796 -11.5612 -11.1137 -11.1011
    17.5374  18.1352  18.6060  19.2126  19.7386  20.0998  22.4699  22.5651
    22.7337  25.0548

          k = 0.1926 0.2890 0.2890 (  3994 PWs)   bands (ev):

   -65.4835 -34.8832 -31.6122 -31.5950 -31.5761 -11.3122 -11.2823 -11.1158
    16.9112  18.2203  18.7776  19.2283  19.3567  19.4649  22.9660  23.2179
    23.5018  24.5468

          k = 0.1926 0.2890 0.3853 (  3988 PWs)   bands (ev):

   -65.4814 -34.8616 -31.6254 -31.6026 -31.5780 -11.4463 -11.2762 -11.1009
    17.3051  18.1515  18.9127  19.1161  19.5093  19.6508  22.7019  23.0211
    23.3621  24.8467

          k = 0.1926 0.2890 0.4816 (  3991 PWs)   bands (ev):

   -65.4802 -34.8487 -31.6342 -31.6074 -31.5779 -11.5326 -11.2651 -11.0917
    17.4539  18.0159  18.8380  19.0758  19.6760  20.3036  22.3096  22.7983
    23.2356  25.1415

          k = 0.1926 0.3853 0.3853 (  3990 PWs)   bands (ev):

   -65.4793 -34.8366 -31.6345 -31.6224 -31.5764 -11.4299 -11.4129 -11.0864
    17.2755  17.9415  18.8782  19.0484  19.9217  20.0779  22.5393  22.8883
    23.7008  25.0481

          k = 0.1926 0.3853 0.4816 (  3993 PWs)   bands (ev):

   -65.4781 -34.8216 -31.6425 -31.6318 -31.5753 -11.5062 -11.4070 -11.0776
    17.1726  17.8190  18.8139  18.8962  20.2617  20.8520  22.2386  22.6701
    23.8016  25.3634

          k = 0.1926 0.4816 0.4816 (  4002 PWs)   bands (ev):

   -65.4769 -34.8054 -31.6478 -31.6460 -31.5737 -11.4916 -11.4892 -11.0692
    16.9880  17.6983  18.7078  18.7401  21.0839  21.3120  22.1339  22.3069
    24.0559  25.7261

          k = 0.2890 0.2890 0.2890 (  3998 PWs)   bands (ev):

   -65.4813 -34.8588 -31.6084 -31.6084 -31.5919 -11.2905 -11.2731 -11.2731
    17.5582  18.7680  18.7680  18.8580  19.1232  19.1232  23.0030  23.0030
    24.0907  24.0907

          k = 0.2890 0.2890 0.3853 (  3992 PWs)   bands (ev):

   -65.4792 -34.8361 -31.6261 -31.6049 -31.6011 -11.4260 -11.2647 -11.2595
    17.8892  18.4553  18.7256  19.0557  19.1933  19.4564  22.7208  22.7295
    23.8901  24.7285

          k = 0.2890 0.2890 0.4816 (  3990 PWs)   bands (ev):

   -65.4780 -34.8226 -31.6375 -31.6057 -31.6028 -11.5119 -11.2596 -11.2448
    17.8448  18.2577  18.6880  19.0237  19.5264  20.0715  22.2430  22.5614
    23.8198  25.1774

          k = 0.2890 0.3853 0.3853 (  3988 PWs)   bands (ev):

   -65.4771 -34.8125 -31.6303 -31.6238 -31.6021 -11.4110 -11.4043 -11.2485
    17.9518  18.3640  18.7966  18.9983  19.4368  19.6641  22.4814  22.5146
    24.2838  24.9785

          k = 0.2890 0.3853 0.4816 (  3992 PWs)   bands (ev):

   -65.4759 -34.7984 -31.6409 -31.6285 -31.6012 -11.4929 -11.3970 -11.2403
    17.8014  18.2582  18.7487  18.9061  19.8127  20.2241  22.1023  22.3773
    24.3653  25.4027

          k = 0.2890 0.4816 0.4816 (  4000 PWs)   bands (ev):

   -65.4747 -34.7840 -31.6434 -31.6424 -31.5994 -11.4821 -11.4812 -11.2335
    17.6790  18.2318  18.6807  18.7368  20.4554  20.4589  21.8721  22.1960
    24.6021  25.7726

          k = 0.3853 0.3853 0.3853 (  3999 PWs)   bands (ev):

   -65.4751 -34.7903 -31.6265 -31.6265 -31.6244 -11.3964 -11.3964 -11.3920
    18.2215  18.7706  18.7706  19.0690  19.3485  19.3485  22.2766  22.2766
    24.9845  24.9845

          k = 0.3853 0.3853 0.4816 (  4008 PWs)   bands (ev):

   -65.4739 -34.7770 -31.6398 -31.6260 -31.6242 -11.4808 -11.3917 -11.3831
    18.2306  18.5102  18.8352  19.0710  19.4752  19.8050  21.9663  22.1727
    25.0009  25.5180

          k = 0.3853 0.4816 0.4816 (  3994 PWs)   bands (ev):

   -65.4727 -34.7642 -31.6393 -31.6391 -31.6230 -11.4738 -11.4734 -11.3818
    18.3707  18.6448  18.7307  18.9396  19.7533  19.7858  21.8105  22.0149
    25.2901  25.8113

          k = 0.4816 0.4816 0.4816 (  3972 PWs)   bands (ev):

   -65.4715 -34.7523 -31.6373 -31.6369 -31.6369 -11.4694 -11.4694 -11.4676
    18.6922  18.9096  18.9096  19.2607  19.2607  19.3664  21.7965  21.7965
    25.8337  25.8337

     the Fermi energy is    21.4792 ev

!    total energy              =    -448.54002251 Ry
     estimated scf accuracy    <          4.4E-09 Ry
     smearing contrib. (-TS)   =       0.00004755 Ry
     internal energy E=F+TS    =    -448.54007006 Ry

     The total energy is F=E-TS. E is the sum of the following terms:
     one-electron contribution =    -127.75971371 Ry
     hartree contribution      =      83.89529491 Ry
     xc contribution           =     -53.23516164 Ry
     ewald contribution        =    -275.28321590 Ry
     one-center paw contrib.   =     -76.15727372 Ry

     convergence has been achieved in   8 iterations

     negative rho (up, down):  9.188E-04 0.000E+00

     Forces acting on atoms (cartesian axes, Ry/au):

     atom    1 type  1   force =     0.00000000    0.00000000    0.00000000
     atom    2 type  2   force =     0.00000000    0.00000000    0.00000000

     Total force =     0.000000     Total SCF correction =     0.000000


     Computing stress (Cartesian axis) and pressure


     negative rho (up, down):  9.188E-04 0.000E+00
          total   stress  (Ry/bohr**3)                   (kbar)     P=      537.42
   0.00365330   0.00000000   0.00000000          537.42        0.00        0.00
   0.00000000   0.00365330   0.00000000            0.00      537.42        0.00
   0.00000000   0.00000000   0.00365330            0.00        0.00      537.42

     Energy error            =      2.1E-02 Ry
     Gradient error          =      0.0E+00 Ry/Bohr
     Cell gradient error     =      1.8E+02 kbar

     number of scf cycles    =   2
     number of bfgs steps    =   1

     enthalpy           old  =    -448.1651138087 Ry
     enthalpy           new  =    -448.1856855483 Ry

     CASE: enthalpy          _new < enthalpy          _old

     new trust radius        =       0.0458497052 bohr
     new conv_thr            =            1.0E-10 Ry

     new unit-cell volume =    152.40243 a.u.^3 (    22.58371 Ang^3 )
     density =      7.62575 g/cm^3

CELL_PARAMETERS (alat=  5.55330037)
   0.961862066   0.000000000   0.000000000
   0.000000000   0.961862066   0.000000000
   0.000000000   0.000000000   0.961862066

ATOMIC_POSITIONS (crystal)
Fe               0.5000000000        0.5000000000        0.5000000000
Ti               0.0000000000        0.0000000000        0.0000000000



     Writing config-only to output data dir ./TiFe.save/ :
     XML data file
     NEW-OLD atomic charge density approx. for the potential
     New effective cutoffs (rho, wfc): 1876.25  134.02

     Check: negative core charge=   -0.000002

     negative rho (up, down):  9.381E-04 0.000E+00

     total cpu time spent up to now is       56.7 secs

     per-process dynamical memory:   153.4 Mb

     Self-consistent Calculation

     iteration #  1     ecut=   124.00 Ry     beta= 0.70
     Davidson diagonalization with overlap
     ethr =  1.00E-06,  avg # of iterations =  8.4

     negative rho (up, down):  9.352E-04 0.000E+00

     total cpu time spent up to now is       58.9 secs

     total energy              =    -448.56306564 Ry
     estimated scf accuracy    <       0.00103989 Ry

     iteration #  2     ecut=   124.00 Ry     beta= 0.70
     Davidson diagonalization with overlap
     ethr =  3.71E-06,  avg # of iterations =  4.8

     negative rho (up, down):  9.237E-04 0.000E+00

     total cpu time spent up to now is       60.2 secs

     total energy              =    -448.55978584 Ry
     estimated scf accuracy    <       0.08208324 Ry

     iteration #  3     ecut=   124.00 Ry     beta= 0.70
     Davidson diagonalization with overlap
     ethr =  3.71E-06,  avg # of iterations =  4.6

     negative rho (up, down):  9.326E-04 0.000E+00

     total cpu time spent up to now is       61.5 secs

     total energy              =    -448.56471464 Ry
     estimated scf accuracy    <       0.00020293 Ry

     iteration #  4     ecut=   124.00 Ry     beta= 0.70
     Davidson diagonalization with overlap
     ethr =  7.25E-07,  avg # of iterations =  2.1

     negative rho (up, down):  9.345E-04 0.000E+00

     total cpu time spent up to now is       62.7 secs

     total energy              =    -448.56476781 Ry
     estimated scf accuracy    <       0.00001094 Ry

     iteration #  5     ecut=   124.00 Ry     beta= 0.70
     Davidson diagonalization with overlap
     ethr =  3.91E-08,  avg # of iterations =  5.1

     negative rho (up, down):  9.322E-04 0.000E+00

     total cpu time spent up to now is       64.1 secs

     total energy              =    -448.56477681 Ry
     estimated scf accuracy    <       0.00000226 Ry

     iteration #  6     ecut=   124.00 Ry     beta= 0.70
     Davidson diagonalization with overlap
     ethr =  8.06E-09,  avg # of iterations =  2.9

     negative rho (up, down):  9.327E-04 0.000E+00

     total cpu time spent up to now is       65.3 secs

     total energy              =    -448.56477762 Ry
     estimated scf accuracy    <       0.00000092 Ry

     iteration #  7     ecut=   124.00 Ry     beta= 0.70
     Davidson diagonalization with overlap
     ethr =  3.29E-09,  avg # of iterations =  2.0

     negative rho (up, down):  9.329E-04 0.000E+00

     total cpu time spent up to now is       66.4 secs

     total energy              =    -448.56477770 Ry
     estimated scf accuracy    <       0.00000005 Ry

     iteration #  8     ecut=   124.00 Ry     beta= 0.70
     Davidson diagonalization with overlap
     ethr =  1.96E-10,  avg # of iterations =  4.3

     negative rho (up, down):  9.328E-04 0.000E+00

     total cpu time spent up to now is       67.7 secs

     total energy              =    -448.56477773 Ry
     estimated scf accuracy    <          2.0E-09 Ry

     iteration #  9     ecut=   124.00 Ry     beta= 0.70
     Davidson diagonalization with overlap
     ethr =  7.17E-12,  avg # of iterations =  4.7

     negative rho (up, down):  9.328E-04 0.000E+00

     total cpu time spent up to now is       68.9 secs

     total energy              =    -448.56477774 Ry
     estimated scf accuracy    <          4.9E-10 Ry

     iteration # 10     ecut=   124.00 Ry     beta= 0.70
     Davidson diagonalization with overlap
     ethr =  1.75E-12,  avg # of iterations =  2.3

     negative rho (up, down):  9.328E-04 0.000E+00

     total cpu time spent up to now is       70.0 secs

     End of self-consistent calculation

          k = 0.0000 0.0000 0.0000 (  3911 PWs)   bands (ev):

   -66.7741 -36.3957 -32.8414 -32.8414 -32.8414 -12.4449 -12.4449 -12.4449
    12.3352  15.7095  15.7095  19.0160  19.0160  19.0160  21.7093  21.7093
    23.9839  23.9839

          k = 0.0000 0.0000 0.0945 (  3947 PWs)   bands (ev):

   -66.7736 -36.3930 -32.8445 -32.8407 -32.8407 -12.4891 -12.4426 -12.4426
    12.5284  15.8041  15.8256  19.0019  19.0019  19.0602  21.5799  21.7596
    23.6855  23.6855

          k = 0.0000 0.0000 0.1890 (  3964 PWs)   bands (ev):

   -66.7723 -36.3858 -32.8527 -32.8389 -32.8389 -12.6065 -12.4364 -12.4364
    13.0847  16.0816  16.1334  18.9709  18.9709  19.1842  21.2074  21.8800
    22.9954  22.9954

          k = 0.0000 0.0000 0.2835 (  3988 PWs)   bands (ev):

   -66.7705 -36.3765 -32.8633 -32.8366 -32.8366 -12.7576 -12.4283 -12.4283
    13.9357  16.5106  16.5201  18.9478  18.9478  19.3609  20.6408  21.9576
    22.2341  22.2341

          k = 0.0000 0.0000 0.3781 (  4008 PWs)   bands (ev):

   -66.7689 -36.3680 -32.8729 -32.8344 -32.8344 -12.8940 -12.4208 -12.4208
    14.9592  16.7575  17.0675  18.9509  18.9509  19.5418  19.9727  21.6092
    21.6092  21.8030

          k = 0.0000 0.0000 0.4726 (  3992 PWs)   bands (ev):

   -66.7679 -36.3630 -32.8785 -32.8331 -32.8331 -12.9740 -12.4163 -12.4163
    15.9416  16.6303  17.5657  18.9690  18.9690  19.4015  19.6603  21.2533
    21.2533  21.4854

          k = 0.0000 0.0945 0.0945 (  3966 PWs)   bands (ev):

   -66.7731 -36.3900 -32.8469 -32.8412 -32.8401 -12.4919 -12.4806 -12.4401
    12.7168  15.9017  15.9343  18.9017  18.9789  19.1775  21.5622  21.7240
    23.3561  23.3898

          k = 0.0000 0.0945 0.1890 (  3978 PWs)   bands (ev):

   -66.7718 -36.3819 -32.8549 -32.8410 -32.8383 -12.6030 -12.4780 -12.4335
    13.2580  16.1600  16.2463  18.8067  18.9240  19.3195  21.2756  21.8294
    22.7216  22.7513

          k = 0.0000 0.0945 0.2835 (  3995 PWs)   bands (ev):

   -66.7700 -36.3715 -32.8656 -32.8403 -32.8360 -12.7521 -12.4684 -12.4248
    14.0806  16.5336  16.6565  18.7589  18.8647  19.4213  20.7927  21.8241
    22.1402  22.1618

          k = 0.0000 0.0945 0.3781 (  3991 PWs)   bands (ev):

   -66.7684 -36.3619 -32.8753 -32.8397 -32.8339 -12.8868 -12.4595 -12.4168
    15.0592  16.7967  17.1298  18.7739  18.8101  19.4243  20.2488  21.3371
    21.7715  22.0280

          k = 0.0000 0.0945 0.4726 (  3999 PWs)   bands (ev):

   -66.7674 -36.3563 -32.8809 -32.8393 -32.8326 -12.9658 -12.4542 -12.4121
    15.9838  16.6637  17.5723  18.7253  18.8291  19.3489  19.8702  21.0090
    21.6187  21.8368

          k = 0.0000 0.1890 0.1890 (  3972 PWs)   bands (ev):

   -66.7704 -36.3715 -32.8618 -32.8454 -32.8366 -12.6069 -12.5753 -12.4258
    13.7495  16.3414  16.5856  18.5976  18.8207  19.4177  21.3430  21.7773
    22.1232  22.3635

          k = 0.0000 0.1890 0.2835 (  4003 PWs)   bands (ev):

   -66.7687 -36.3580 -32.8721 -32.8499 -32.8344 -12.7377 -12.5746 -12.4156
    14.4738  16.5663  17.0488  18.4549  18.7311  19.3288  21.1254  21.5098
    21.9710  22.1545

          k = 0.0000 0.1890 0.3781 (  3997 PWs)   bands (ev):

   -66.7671 -36.3455 -32.8819 -32.8536 -32.8324 -12.8673 -12.5623 -12.4063
    15.2867  16.7007  17.5045  18.4165  18.7199  19.0738  20.7634  21.1266
    22.1593  22.1864

          k = 0.0000 0.1890 0.4726 (  3990 PWs)   bands (ev):

   -66.7661 -36.3381 -32.8876 -32.8557 -32.8312 -12.9435 -12.5548 -12.4007
    15.9801  16.5892  17.8119  18.4866  18.7881  18.8038  20.5673  20.8527
    22.2312  22.3089

          k = 0.0000 0.2835 0.2835 (  4000 PWs)   bands (ev):

   -66.7669 -36.3403 -32.8814 -32.8617 -32.8323 -12.7336 -12.6968 -12.4036
    14.9931  16.5655  17.5960  18.2072  18.7183  19.0093  21.2550  21.3967
    21.8698  22.3642

          k = 0.0000 0.2835 0.3781 (  3993 PWs)   bands (ev):

   -66.7653 -36.3239 -32.8908 -32.8716 -32.8304 -12.8419 -12.6948 -12.3924
    15.4708  16.4883  18.0793  18.1320  18.6202  18.9568  21.0555  21.3788
    22.0953  22.6971

          k = 0.0000 0.2835 0.4726 (  3996 PWs)   bands (ev):

   -66.7644 -36.3142 -32.8966 -32.8772 -32.8293 -12.9144 -12.6846 -12.3858
    15.7779  16.3646  18.0996  18.3030  18.4299  19.4052  20.7901  21.3143
    22.3981  22.9955

          k = 0.0000 0.3781 0.3781 (  4002 PWs)   bands (ev):

   -66.7638 -36.3040 -32.8994 -32.8877 -32.8286 -12.8272 -12.8060 -12.3797
    15.5219  16.2759  17.8587  18.2072  18.8481  19.4769  21.2397  21.7977
    21.9243  23.1793

          k = 0.0000 0.3781 0.4726 (  3999 PWs)   bands (ev):

   -66.7628 -36.2921 -32.9050 -32.8969 -32.8275 -12.8875 -12.8021 -12.3720
    15.5090  16.1474  17.7996  17.9209  19.2916  20.2156  20.9834  21.8825
    22.2105  23.5416

          k = 0.0000 0.4726 0.4726 (  3998 PWs)   bands (ev):

   -66.7619 -36.2788 -32.9102 -32.9085 -32.8265 -12.8727 -12.8698 -12.3638
    15.3389  16.0221  17.6567  17.6977  20.0640  20.6627  21.5085  21.7245
    22.1926  23.8651

          k = 0.0945 0.0945 0.0945 (  3959 PWs)   bands (ev):

   -66.7726 -36.3867 -32.8462 -32.8462 -32.8384 -12.4935 -12.4783 -12.4783
    12.9013  16.0194  16.0194  18.8760  18.8760  19.2739  21.6270  21.6270
    22.8637  23.6619

          k = 0.0945 0.0945 0.1890 (  3966 PWs)   bands (ev):

   -66.7713 -36.3779 -32.8557 -32.8444 -32.8380 -12.5994 -12.4779 -12.4720
    13.4300  16.2674  16.3290  18.7454  18.8086  19.3769  21.3476  21.7826
    22.3053  22.9703

          k = 0.0945 0.0945 0.2835 (  3992 PWs)   bands (ev):

   -66.7695 -36.3664 -32.8672 -32.8420 -32.8382 -12.7467 -12.4662 -12.4637
    14.2288  16.6534  16.6975  18.6822  18.7177  19.3716  20.9282  21.7472
    22.0922  22.2235

          k = 0.0945 0.0945 0.3781 (  3994 PWs)   bands (ev):

   -66.7679 -36.3559 -32.8773 -32.8398 -32.8387 -12.8798 -12.4561 -12.4552
    15.1691  16.9047  17.1221  18.6043  18.7300  19.2619  20.4655  21.4477
    21.6285  22.2391

          k = 0.0945 0.0945 0.4726 (  4007 PWs)   bands (ev):

   -66.7669 -36.3497 -32.8831 -32.8390 -32.8385 -12.9580 -12.4515 -12.4487
    16.0466  16.7330  17.5337  18.4593  18.8824  19.1486  20.1402  21.1522
    21.3004  22.3821

          k = 0.0945 0.1890 0.1890 (  3984 PWs)   bands (ev):

   -66.7699 -36.3670 -32.8611 -32.8489 -32.8385 -12.6018 -12.5729 -12.4664
    13.9169  16.4693  16.6424  18.5554  18.6856  19.3395  21.4286  21.7423
    21.9805  22.6349

          k = 0.0945 0.1890 0.2835 (  3994 PWs)   bands (ev):

   -66.7682 -36.3528 -32.8721 -32.8513 -32.8386 -12.7325 -12.5711 -12.4555
    14.6310  16.7067  17.0721  18.4064  18.5848  19.1210  21.2379  21.6571
    22.0048  22.2353

          k = 0.0945 0.1890 0.3781 (  4001 PWs)   bands (ev):

   -66.7666 -36.3397 -32.8828 -32.8535 -32.8379 -12.8612 -12.5587 -12.4453
    15.4241  16.8524  17.4454  18.3292  18.5964  18.8972  20.9432  21.2704
    21.8612  22.5756

          k = 0.0945 0.1890 0.4726 (  3993 PWs)   bands (ev):

   -66.7656 -36.3320 -32.8891 -32.8552 -32.8372 -12.9370 -12.5512 -12.4391
    16.0942  16.7192  17.6783  18.2732  18.6965  18.8751  20.7427  20.9448
    21.6352  23.0564

          k = 0.0945 0.2835 0.2835 (  3989 PWs)   bands (ev):

   -66.7665 -36.3349 -32.8806 -32.8629 -32.8376 -12.7275 -12.6943 -12.4431
    15.1599  16.7122  17.6055  18.1658  18.5506  18.7626  21.3946  21.5745
    21.8514  22.5384

          k = 0.0945 0.2835 0.3781 (  3985 PWs)   bands (ev):

   -66.7649 -36.3184 -32.8905 -32.8718 -32.8362 -12.8370 -12.6914 -12.4316
    15.6337  16.6357  18.0032  18.0813  18.4990  18.7837  21.1539  21.4824
    21.9459  23.0370

          k = 0.0945 0.2835 0.4726 (  4006 PWs)   bands (ev):

   -66.7639 -36.3086 -32.8970 -32.8766 -32.8353 -12.9095 -12.6815 -12.4247
    15.9230  16.5102  18.0021  18.0871  18.5037  19.2818  20.8383  21.4349
    21.8839  23.6023

          k = 0.0945 0.3781 0.3781 (  3992 PWs)   bands (ev):

   -66.7633 -36.2987 -32.8985 -32.8879 -32.8345 -12.8227 -12.8036 -12.4190
    15.6845  16.4231  17.8258  18.1060  18.8023  19.2719  21.1765  21.7824
    21.9120  23.5644

          k = 0.0945 0.3781 0.4726 (  4002 PWs)   bands (ev):

   -66.7624 -36.2869 -32.9045 -32.8962 -32.8334 -12.8841 -12.7994 -12.4115
    15.6614  16.2971  17.7655  17.8651  19.2152  20.0126  20.9154  21.7537
    22.0262  23.8147

          k = 0.0945 0.4726 0.4726 (  3993 PWs)   bands (ev):

   -66.7614 -36.2740 -32.9092 -32.9077 -32.8323 -12.8702 -12.8675 -12.4036
    15.4932  16.1732  17.6345  17.6706  20.0091  20.5381  21.1532  21.3029
    22.2779  24.0707

          k = 0.1890 0.1890 0.1890 (  3989 PWs)   bands (ev):

   -66.7686 -36.3548 -32.8591 -32.8591 -32.8426 -12.5961 -12.5664 -12.5664
    14.3870  16.8037  16.8037  18.4439  18.4439  19.0348  21.6388  21.6388
    22.0597  22.9228

          k = 0.1890 0.1890 0.2835 (  3992 PWs)   bands (ev):

   -66.7669 -36.3388 -32.8729 -32.8565 -32.8474 -12.7187 -12.5649 -12.5578
    15.0605  17.0406  17.1725  18.2897  18.2972  18.6601  21.4808  21.7629
    22.2054  22.4296

          k = 0.1890 0.1890 0.3781 (  3994 PWs)   bands (ev):

   -66.7653 -36.3241 -32.8856 -32.8541 -32.8517 -12.8450 -12.5500 -12.5477
    15.7679  17.2277  17.3020  18.1478  18.3551  18.5736  21.3117  21.4954
    21.6487  23.1005

          k = 0.1890 0.1890 0.4726 (  3986 PWs)   bands (ev):

   -66.7643 -36.3154 -32.8930 -32.8544 -32.8527 -12.9194 -12.5453 -12.5373
    16.3195  16.9426  17.5036  18.0285  18.5094  18.8327  21.0386  21.2060
    21.3399  23.5003

          k = 0.1890 0.2835 0.2835 (  3994 PWs)   bands (ev):

   -66.7652 -36.3205 -32.8784 -32.8666 -32.8512 -12.7111 -12.6878 -12.5482
    15.6232  17.1103  17.6239  18.0626  18.1722  18.2699  21.5410  21.7676
    22.0694  23.0056

          k = 0.1890 0.2835 0.3781 (  3988 PWs)   bands (ev):

   -66.7636 -36.3036 -32.8901 -32.8722 -32.8516 -12.8240 -12.6824 -12.5358
    16.0846  17.0184  17.7675  17.9477  18.2866  18.4114  21.2859  21.5782
    21.9406  23.3129

          k = 0.1890 0.2835 0.4726 (  3991 PWs)   bands (ev):

   -66.7626 -36.2935 -32.8983 -32.8748 -32.8513 -12.8963 -12.6732 -12.5282
    16.3113  16.8597  17.7087  17.9029  18.4203  18.9923  20.9021  21.3765
    21.8280  23.5817

          k = 0.1890 0.3781 0.3781 (  3990 PWs)   bands (ev):

   -66.7620 -36.2846 -32.8961 -32.8883 -32.8502 -12.8106 -12.7973 -12.5236
    16.1472  16.8042  17.7452  17.8941  18.6575  18.7562  21.1345  21.4389
    22.2544  23.5016

          k = 0.1890 0.3781 0.4726 (  3993 PWs)   bands (ev):

   -66.7611 -36.2732 -32.9034 -32.8943 -32.8493 -12.8751 -12.7923 -12.5163
    16.0922  16.6840  17.6843  17.7520  18.9531  19.4839  20.8370  21.2429
    22.3467  23.7912

          k = 0.1890 0.4726 0.4726 (  4002 PWs)   bands (ev):

   -66.7602 -36.2611 -32.9067 -32.9056 -32.8481 -12.8633 -12.8615 -12.5093
    15.9342  16.5737  17.5843  17.6125  19.7291  19.9080  20.7248  20.9073
    22.5777  24.1300

          k = 0.2835 0.2835 0.2835 (  3998 PWs)   bands (ev):

   -66.7635 -36.3015 -32.8755 -32.8755 -32.8649 -12.6941 -12.6793 -12.6793
    16.2412  17.6267  17.6267  17.7102  17.9475  17.9475  21.5657  21.5657
    22.6180  22.6180

          k = 0.2835 0.2835 0.3781 (  3992 PWs)   bands (ev):

   -66.7619 -36.2840 -32.8904 -32.8729 -32.8708 -12.8072 -12.6714 -12.6689
    16.6518  17.3101  17.5993  17.8669  17.9867  18.2367  21.2904  21.3150
    22.4345  23.2067

          k = 0.2835 0.2835 0.4726 (  3990 PWs)   bands (ev):

   -66.7610 -36.2736 -32.9002 -32.8734 -32.8713 -12.8791 -12.6667 -12.6572
    16.7019  17.1057  17.5689  17.8291  18.2640  18.7849  20.8370  21.1619
    22.3699  23.6173

          k = 0.2835 0.3781 0.3781 (  3988 PWs)   bands (ev):

   -66.7603 -36.2659 -32.8930 -32.8888 -32.8708 -12.7947 -12.7891 -12.6586
    16.8095  17.1992  17.6623  17.8203  18.1690  18.4143  21.0795  21.0997
    22.7968  23.4397

          k = 0.2835 0.3781 0.4726 (  3992 PWs)   bands (ev):

   -66.7594 -36.2551 -32.9020 -32.8916 -32.8700 -12.8633 -12.7830 -12.6516
    16.6953  17.1070  17.6169  17.7318  18.5218  18.9169  20.7120  20.9826
    22.8717  23.8295

          k = 0.2835 0.4726 0.4726 (  4000 PWs)   bands (ev):

   -66.7585 -36.2441 -32.9034 -32.9028 -32.8686 -12.8543 -12.8535 -12.6456
    16.5876  17.0722  17.5487  17.5928  19.1249  19.1342  20.5028  20.8078
    23.0875  24.1734

          k = 0.3781 0.3781 0.3781 (  3999 PWs)   bands (ev):

   -66.7588 -36.2487 -32.8901 -32.8901 -32.8889 -12.7815 -12.7815 -12.7794
    17.1140  17.6290  17.6290  17.7646  18.1223  18.1223  20.8845  20.8845
    23.4456  23.4456

          k = 0.3781 0.3781 0.4726 (  4008 PWs)   bands (ev):

   -66.7579 -36.2384 -32.9009 -32.8897 -32.8884 -12.8525 -12.7769 -12.7714
    17.1181  17.3606  17.6843  17.8656  18.1957  18.5387  20.5914  20.7905
    23.4607  23.9370

          k = 0.3781 0.4726 0.4726 (  3994 PWs)   bands (ev):

   -66.7570 -36.2285 -32.9004 -32.9003 -32.8875 -12.8462 -12.8460 -12.7689
    17.2455  17.4754  17.5808  17.7468  18.4803  18.5212  20.4493  20.6405
    23.7266  24.2089

          k = 0.4726 0.4726 0.4726 (  3972 PWs)   bands (ev):

   -66.7561 -36.2192 -32.8988 -32.8985 -32.8985 -12.8418 -12.8418 -12.8407
    17.5350  17.7268  17.7268  18.0517  18.0517  18.1281  20.4369  20.4369
    24.2292  24.2292

     the Fermi energy is    20.1763 ev

!    total energy              =    -448.56477774 Ry
     estimated scf accuracy    <          1.0E-11 Ry
     smearing contrib. (-TS)   =      -0.00000194 Ry
     internal energy E=F+TS    =    -448.56477579 Ry

     The total energy is F=E-TS. E is the sum of the following terms:
     one-electron contribution =    -135.57870654 Ry
     hartree contribution      =      86.40520056 Ry
     xc contribution           =     -53.11245033 Ry
     ewald contribution        =    -270.12262145 Ry
     one-center paw contrib.   =     -76.15619804 Ry

     convergence has been achieved in  10 iterations

     negative rho (up, down):  9.328E-04 0.000E+00

     Forces acting on atoms (cartesian axes, Ry/au):

     atom    1 type  1   force =     0.00000000    0.00000000    0.00000000
     atom    2 type  2   force =     0.00000000    0.00000000    0.00000000

     Total force =     0.000000     Total SCF correction =     0.000000


     Computing stress (Cartesian axis) and pressure


     negative rho (up, down):  9.328E-04 0.000E+00
          total   stress  (Ry/bohr**3)                   (kbar)     P=      335.35
   0.00227967   0.00000000   0.00000000          335.35        0.00        0.00
   0.00000000   0.00227967   0.00000000            0.00      335.35        0.00
   0.00000000   0.00000000   0.00227967            0.00        0.00      335.35

     Energy error            =      4.1E-03 Ry
     Gradient error          =      0.0E+00 Ry/Bohr
     Cell gradient error     =      2.7E+01 kbar

     number of scf cycles    =   3
     number of bfgs steps    =   2

     enthalpy           old  =    -448.1856855483 Ry
     enthalpy           new  =    -448.1897418809 Ry

     CASE: enthalpy          _new < enthalpy          _old

     new trust radius        =       0.0063076627 bohr
     new conv_thr            =            1.0E-10 Ry

     new unit-cell volume =    151.23737 a.u.^3 (    22.41107 Ang^3 )
     density =      7.68450 g/cm^3

CELL_PARAMETERS (alat=  5.55330037)
   0.959404782   0.000000000   0.000000000
   0.000000000   0.959404782   0.000000000
   0.000000000   0.000000000   0.959404782

ATOMIC_POSITIONS (crystal)
Fe               0.5000000000        0.5000000000        0.5000000000
Ti               0.0000000000        0.0000000000        0.0000000000



     Writing config-only to output data dir ./TiFe.save/ :
     XML data file
     NEW-OLD atomic charge density approx. for the potential
     New effective cutoffs (rho, wfc): 1885.88  134.71

     Check: negative core charge=   -0.000002

     negative rho (up, down):  9.312E-04 0.000E+00

     total cpu time spent up to now is       72.1 secs

     per-process dynamical memory:   153.4 Mb

     Self-consistent Calculation

     iteration #  1     ecut=   124.00 Ry     beta= 0.70
     Davidson diagonalization with overlap
     ethr =  1.00E-06,  avg # of iterations =  4.1

     Threshold (ethr) on eigenvalues was too large:
     Diagonalizing with lowered threshold

     Davidson diagonalization with overlap
     ethr =  6.82E-09,  avg # of iterations =  5.8

     negative rho (up, down):  9.314E-04 0.000E+00

     total cpu time spent up to now is       74.8 secs

     total energy              =    -448.56197693 Ry
     estimated scf accuracy    <       0.00000215 Ry

     iteration #  2     ecut=   124.00 Ry     beta= 0.70
     Davidson diagonalization with overlap
     ethr =  7.67E-09,  avg # of iterations =  3.9

     negative rho (up, down):  9.313E-04 0.000E+00

     total cpu time spent up to now is       76.0 secs

     total energy              =    -448.56201307 Ry
     estimated scf accuracy    <       0.00004208 Ry

     iteration #  3     ecut=   124.00 Ry     beta= 0.70
     Davidson diagonalization with overlap
     ethr =  7.67E-09,  avg # of iterations =  4.1

     negative rho (up, down):  9.311E-04 0.000E+00

     total cpu time spent up to now is       77.2 secs

     total energy              =    -448.56202208 Ry
     estimated scf accuracy    <       0.00001074 Ry

     iteration #  4     ecut=   124.00 Ry     beta= 0.70
     Davidson diagonalization with overlap
     ethr =  7.67E-09,  avg # of iterations =  2.5

     negative rho (up, down):  9.314E-04 0.000E+00

     total cpu time spent up to now is       78.3 secs

     total energy              =    -448.56202298 Ry
     estimated scf accuracy    <       0.00000053 Ry

     iteration #  5     ecut=   124.00 Ry     beta= 0.70
     Davidson diagonalization with overlap
     ethr =  1.89E-09,  avg # of iterations =  2.4

     negative rho (up, down):  9.314E-04 0.000E+00

[...]
     estimated scf accuracy    <       0.00000592 Ry

     iteration # 22     ecut=   124.00 Ry     beta= 0.70
     Davidson diagonalization with overlap
     ethr =  5.75E-09,  avg # of iterations =  2.0

     negative rho (up, down):  9.544E-04 0.000E+00

     total cpu time spent up to now is      123.5 secs

     total energy              =    -448.56168334 Ry
     estimated scf accuracy    <       0.00000218 Ry

     iteration # 23     ecut=   124.00 Ry     beta= 0.70
     Davidson diagonalization with overlap
     ethr =  5.75E-09,  avg # of iterations =  2.1

     negative rho (up, down):  9.540E-04 0.000E+00

     total cpu time spent up to now is      124.5 secs

     total energy              =    -448.56168356 Ry
     estimated scf accuracy    <       0.00000011 Ry

     iteration # 24     ecut=   124.00 Ry     beta= 0.70
     Davidson diagonalization with overlap
     ethr =  4.08E-10,  avg # of iterations =  3.5

     negative rho (up, down):  9.541E-04 0.000E+00

     total cpu time spent up to now is      125.6 secs

     total energy              =    -448.56168354 Ry
     estimated scf accuracy    <       0.00000008 Ry

     iteration # 25     ecut=   124.00 Ry     beta= 0.70
     Davidson diagonalization with overlap
     ethr =  2.95E-10,  avg # of iterations =  2.5

     negative rho (up, down):  9.542E-04 0.000E+00

     total cpu time spent up to now is      126.6 secs

     total energy              =    -448.56168356 Ry
     estimated scf accuracy    <       0.00000001 Ry

     iteration # 26     ecut=   124.00 Ry     beta= 0.70
     Davidson diagonalization with overlap
     ethr =  4.17E-11,  avg # of iterations =  4.4

     negative rho (up, down):  9.542E-04 0.000E+00

     total cpu time spent up to now is      127.9 secs

     total energy              =    -448.56168356 Ry
     estimated scf accuracy    <          1.1E-09 Ry

     iteration # 27     ecut=   124.00 Ry     beta= 0.70
     Davidson diagonalization with overlap
     ethr =  3.95E-12,  avg # of iterations =  2.5

     negative rho (up, down):  9.542E-04 0.000E+00

     total cpu time spent up to now is      128.9 secs

     total energy              =    -448.56168356 Ry
     estimated scf accuracy    <          1.8E-09 Ry

     iteration # 28     ecut=   124.00 Ry     beta= 0.70
     Davidson diagonalization with overlap
     ethr =  3.95E-12,  avg # of iterations =  2.4

     negative rho (up, down):  9.542E-04 0.000E+00

     total cpu time spent up to now is      129.9 secs

     total energy              =    -448.56168356 Ry
     estimated scf accuracy    <          1.5E-10 Ry

     iteration # 29     ecut=   124.00 Ry     beta= 0.70
     Davidson diagonalization with overlap
     ethr =  5.43E-13,  avg # of iterations =  2.2

     negative rho (up, down):  9.542E-04 0.000E+00

     total cpu time spent up to now is      130.9 secs

     End of self-consistent calculation

          k = 0.0000 0.0000 0.0000 (  3575 PWs)   bands (ev):

   -66.5946 -36.1957 -32.6621 -32.6621 -32.6621 -12.2406 -12.2406 -12.2406
    12.5006  15.8442  15.8442  19.1895  19.1895  19.1895  21.9084  21.9084
    24.2077  24.2077

          k = 0.0000 0.0000 0.0948 (  3543 PWs)   bands (ev):

   -66.5941 -36.1929 -32.6652 -32.6614 -32.6614 -12.2861 -12.2382 -12.2382
    12.6953  15.9397  15.9625  19.1754  19.1754  19.2342  21.7771  21.9596
    23.9059  23.9059

          k = 0.0000 0.0000 0.1895 (  3543 PWs)   bands (ev):

   -66.5927 -36.1857 -32.6735 -32.6595 -32.6595 -12.4068 -12.2319 -12.2319
    13.2558  16.2197  16.2762  19.1442  19.1442  19.3595  21.3994  22.0824
    23.2079  23.2079

          k = 0.0000 0.0000 0.2843 (  3527 PWs)   bands (ev):

   -66.5908 -36.1763 -32.6841 -32.6571 -32.6571 -12.5621 -12.2237 -12.2237
    14.1121  16.6623  16.6624  19.1215  19.1215  19.5383  20.8253  22.1639
    22.4380  22.4380

          k = 0.0000 0.0000 0.3791 (  3515 PWs)   bands (ev):

   -66.5891 -36.1678 -32.6937 -32.6548 -32.6548 -12.7023 -12.2161 -12.2161
    15.1399  16.9200  17.2152  19.1254  19.1254  19.7213  20.1485  21.8059
    21.8059  22.0130

          k = 0.0000 0.0000 0.4739 (  3522 PWs)   bands (ev):

   -66.5881 -36.1627 -32.6993 -32.6535 -32.6535 -12.7845 -12.2115 -12.2115
    16.1224  16.8038  17.7189  19.1443  19.1443  19.5699  19.8412  21.4456
    21.4456  21.6960

          k = 0.0000 0.0948 0.0948 (  3539 PWs)   bands (ev):

   -66.5936 -36.1899 -32.6678 -32.6617 -32.6607 -12.2891 -12.2773 -12.2357
    12.8852  16.0388  16.0726  19.0738  19.1522  19.3532  21.7593  21.9235
    23.5724  23.6069

          k = 0.0000 0.0948 0.1895 (  3542 PWs)   bands (ev):

   -66.5922 -36.1817 -32.6759 -32.6615 -32.6589 -12.4032 -12.2747 -12.2290
    13.4302  16.2999  16.3900  18.9777  19.0971  19.4971  21.4687  22.0310
    22.9314  22.9605

          k = 0.0000 0.0948 0.2843 (  3534 PWs)   bands (ev):

   -66.5903 -36.1711 -32.6866 -32.6608 -32.6565 -12.5564 -12.2649 -12.2201
    14.2574  16.6799  16.8063  18.9296  19.0378  19.6003  20.9793  22.0278
    22.3443  22.3643

          k = 0.0000 0.0948 0.3791 (  3523 PWs)   bands (ev):

   -66.5886 -36.1614 -32.6963 -32.6602 -32.6543 -12.6948 -12.2558 -12.2120
    15.2393  16.9572  17.2808  18.9455  18.9830  19.6031  20.4286  21.5348
    21.9699  22.2365

          k = 0.0000 0.0948 0.4739 (  3523 PWs)   bands (ev):

   -66.5876 -36.1557 -32.7019 -32.6599 -32.6530 -12.7759 -12.2504 -12.2072
    16.1630  16.8357  17.7266  18.8968  19.0022  19.5258  20.0464  21.2040
    21.8157  22.0466

          k = 0.0000 0.1895 0.1895 (  3551 PWs)   bands (ev):

   -66.5908 -36.1711 -32.6833 -32.6658 -32.6571 -12.4074 -12.3745 -12.2211
    13.9242  16.4842  16.7338  18.7658  18.9934  19.5971  21.5372  21.9781
    22.3271  22.5677

          k = 0.0000 0.1895 0.2843 (  3534 PWs)   bands (ev):

   -66.5889 -36.1572 -32.6936 -32.6705 -32.6548 -12.5416 -12.3739 -12.2107
    14.6508  16.7135  17.2040  18.6215  18.9044  19.5072  21.3163  21.7091
    22.1747  22.3565

          k = 0.0000 0.1895 0.3791 (  3534 PWs)   bands (ev):

   -66.5873 -36.1444 -32.7034 -32.6745 -32.6527 -12.6746 -12.3614 -12.2012
    15.4628  16.8553  17.6655  18.5830  18.8951  19.2487  20.9498  21.3228
    22.3685  22.3895

          k = 0.0000 0.1895 0.4739 (  3524 PWs)   bands (ev):

   -66.5863 -36.1368 -32.7091 -32.6769 -32.6515 -12.7529 -12.3536 -12.1955
    16.1504  16.7537  17.9750  18.6547  18.9663  18.9745  20.7517  21.0470
    22.4454  22.5142

          k = 0.0000 0.2843 0.2843 (  3533 PWs)   bands (ev):

   -66.5871 -36.1388 -32.7035 -32.6825 -32.6527 -12.5375 -12.4991 -12.1983
    15.1671  16.7148  17.7585  18.3708  18.8953  19.1837  21.4518  21.5910
    22.0734  22.5691

          k = 0.0000 0.2843 0.3791 (  3526 PWs)   bands (ev):

   -66.5855 -36.1219 -32.7129 -32.6929 -32.6507 -12.6484 -12.4972 -12.1869
    15.6369  16.6411  18.2415  18.3017  18.7896  19.1408  21.2514  21.5733
    22.3038  22.9064

          k = 0.0000 0.2843 0.4739 (  3527 PWs)   bands (ev):

   -66.5845 -36.1119 -32.7187 -32.6991 -32.6495 -12.7227 -12.4868 -12.1801
    15.9347  16.5225  18.2625  18.4681  18.6042  19.5964  20.9847  21.5071
    22.6150  23.2088

          k = 0.0000 0.3791 0.3791 (  3526 PWs)   bands (ev):

   -66.5838 -36.1012 -32.7221 -32.7096 -32.6488 -12.6332 -12.6111 -12.1737
    15.6763  16.4288  18.0184  18.3715  19.0261  19.6703  21.4409  21.9966
    22.1327  23.3945

          k = 0.0000 0.3791 0.4739 (  3520 PWs)   bands (ev):

   -66.5829 -36.0887 -32.7277 -32.7194 -32.6477 -12.6949 -12.6072 -12.1659
    15.6564  16.3009  17.9587  18.0816  19.4754  20.4150  21.1839  22.0828
    22.4263  23.7613

          k = 0.0000 0.4739 0.4739 (  3514 PWs)   bands (ev):

   -66.5819 -36.0749 -32.7332 -32.7314 -32.6466 -12.6796 -12.6766 -12.1574
    15.4819  16.1734  17.8142  17.8557  20.2528  20.8604  21.7216  21.9397
    22.3971  24.0888

          k = 0.0948 0.0948 0.0948 (  3551 PWs)   bands (ev):

   -66.5930 -36.1865 -32.6671 -32.6671 -32.6588 -12.2908 -12.2749 -12.2749
    13.0711  16.1585  16.1585  19.0478  19.0478  19.4511  21.8250  21.8250
    23.0744  23.8820

          k = 0.0948 0.0948 0.1895 (  3537 PWs)   bands (ev):

   -66.5916 -36.1776 -32.6768 -32.6652 -32.6583 -12.3995 -12.2746 -12.2685
    13.6033  16.4087  16.4739  18.9157  18.9799  19.5559  21.5417  21.9835
    22.5097  23.1828

          k = 0.0948 0.0948 0.2843 (  3541 PWs)   bands (ev):

   -66.5898 -36.1659 -32.6883 -32.6627 -32.6586 -12.5508 -12.2626 -12.2601
    14.4062  16.7983  16.8510  18.8523  18.8884  19.5507  21.1166  21.9492
    22.2958  22.4278

          k = 0.0948 0.0948 0.3791 (  3530 PWs)   bands (ev):

   -66.5881 -36.1552 -32.6984 -32.6604 -32.6592 -12.6876 -12.2523 -12.2514
    15.3490  17.0680  17.2716  18.7740  18.9017  19.4390  20.6481  21.6489
    21.8260  22.4473

          k = 0.0948 0.0948 0.4739 (  3510 PWs)   bands (ev):

   -66.5871 -36.1489 -32.7042 -32.6596 -32.6590 -12.7678 -12.2477 -12.2447
    16.2249  16.9052  17.6873  18.6273  19.0573  19.3237  20.3192  21.3532
    21.4940  22.5939

          k = 0.0948 0.1895 0.1895 (  3544 PWs)   bands (ev):

   -66.5903 -36.1664 -32.6825 -32.6697 -32.6588 -12.4021 -12.3720 -12.2628
    14.0928  16.6141  16.7912  18.7233  18.8560  19.5186  21.6241  21.9426
    22.1819  22.8435

          k = 0.0948 0.1895 0.2843 (  3536 PWs)   bands (ev):

   -66.5884 -36.1518 -32.6936 -32.6720 -32.6591 -12.5362 -12.3703 -12.2516
    14.8090  16.8556  17.2276  18.5727  18.7555  19.2972  21.4305  21.8584
    22.2082  22.4393

          k = 0.0948 0.1895 0.3791 (  3528 PWs)   bands (ev):

   -66.5868 -36.1384 -32.7043 -32.6745 -32.6584 -12.6684 -12.3576 -12.2412
    15.6011  17.0087  17.6054  18.4954  18.7691  19.0703  21.1314  21.4687
    22.0646  22.7861

          k = 0.0948 0.1895 0.4739 (  3520 PWs)   bands (ev):

   -66.5858 -36.1304 -32.7106 -32.6763 -32.6577 -12.7461 -12.3499 -12.2349
    16.2654  16.8852  17.8379  18.4405  18.8683  19.0520  20.9287  21.1409
    21.8371  23.2745

          k = 0.0948 0.2843 0.2843 (  3533 PWs)   bands (ev):

   -66.5866 -36.1333 -32.7026 -32.6838 -32.6580 -12.5312 -12.4967 -12.2389
    15.3354  16.8633  17.7679  18.3293  18.7243  18.9344  21.5932  21.7702
    22.0550  22.7466

          k = 0.0948 0.2843 0.3791 (  3519 PWs)   bands (ev):

   -66.5850 -36.1162 -32.7126 -32.6932 -32.6566 -12.6434 -12.4938 -12.2271
    15.8012  16.7902  18.1658  18.2488  18.6682  18.9648  21.3510  21.6776
    22.1519  23.2521

          k = 0.0948 0.2843 0.4739 (  3516 PWs)   bands (ev):

   -66.5840 -36.1061 -32.7191 -32.6984 -32.6557 -12.7177 -12.4836 -12.2201
    16.0809  16.6695  18.1640  18.2518  18.6781  19.4706  21.0338  21.6288
    22.0909  23.8234

          k = 0.0948 0.3791 0.3791 (  3523 PWs)   bands (ev):

   -66.5833 -36.0957 -32.7211 -32.7098 -32.6549 -12.6286 -12.6088 -12.2142
    15.8401  16.5779  17.9853  18.2694  18.9802  19.4630  21.3752  21.9894
    22.1119  23.7857

          k = 0.0948 0.3791 0.4739 (  3524 PWs)   bands (ev):

   -66.5824 -36.0835 -32.7272 -32.7187 -32.6538 -12.6915 -12.6045 -12.2064
    15.8100  16.4522  17.9245  18.0255  19.3990  20.2106  21.1133  21.9618
    22.2278  24.0365

          k = 0.0948 0.4739 0.4739 (  3524 PWs)   bands (ev):

   -66.5814 -36.0699 -32.7322 -32.7306 -32.6527 -12.6771 -12.6743 -12.1983
    15.6375  16.3262  17.7920  17.8286  20.1983  20.7380  21.3571  21.5112
    22.4827  24.2947

          k = 0.1895 0.1895 0.1895 (  3542 PWs)   bands (ev):

   -66.5889 -36.1538 -32.6804 -32.6804 -32.6628 -12.3962 -12.3654 -12.3654
    14.5656  16.9538  16.9538  18.6110  18.6110  19.2107  21.8376  21.8376
    22.2630  23.1350

          k = 0.1895 0.1895 0.2843 (  3521 PWs)   bands (ev):

   -66.5871 -36.1373 -32.6945 -32.6777 -32.6678 -12.5220 -12.3639 -12.3568
    15.2408  17.1927  17.3303  18.4557  18.4634  18.8312  21.6772  21.9659
    22.4096  22.6379

          k = 0.1895 0.1895 0.3791 (  3524 PWs)   bands (ev):

   -66.5854 -36.1222 -32.7073 -32.6752 -32.6726 -12.6517 -12.3488 -12.3462
    15.9455  17.3920  17.4561  18.3135  18.5242  18.7438  21.5053  21.6989
    21.8469  23.3175

          k = 0.1895 0.1895 0.4739 (  3515 PWs)   bands (ev):

   -66.5844 -36.1131 -32.7148 -32.6755 -32.6737 -12.7280 -12.3441 -12.3354
    16.4903  17.1099  17.6586  18.1945  18.6815  19.0099  21.2391  21.3970
    21.5355  23.7184

          k = 0.1895 0.2843 0.2843 (  3531 PWs)   bands (ev):

   -66.5853 -36.1183 -32.7003 -32.6878 -32.6720 -12.5143 -12.4901 -12.3468
    15.8030  17.2661  17.7858  18.2261  18.3383  18.4375  21.7409  21.9710
    22.2705  23.2216

          k = 0.1895 0.2843 0.3791 (  3520 PWs)   bands (ev):

   -66.5836 -36.1008 -32.7122 -32.6937 -32.6726 -12.6300 -12.4846 -12.3341
    16.2560  17.1772  17.9285  18.1116  18.4578  18.5844  21.4845  21.7804
    22.1402  23.5282

          k = 0.1895 0.2843 0.4739 (  3511 PWs)   bands (ev):

   -66.5827 -36.0903 -32.7205 -32.6966 -32.6723 -12.7042 -12.4751 -12.3263
    16.4720  17.0218  17.8673  18.0674  18.5958  19.1754  21.0994  21.5758
    22.0257  23.8006

          k = 0.1895 0.3791 0.3791 (  3514 PWs)   bands (ev):

   -66.5820 -36.0810 -32.7186 -32.7102 -32.6711 -12.6162 -12.6024 -12.3216
    16.3061  16.9634  17.9044  18.0562  18.8345  18.9405  21.3315  21.6419
    22.4574  23.7187

          k = 0.1895 0.3791 0.4739 (  3517 PWs)   bands (ev):

   -66.5810 -36.0692 -32.7260 -32.7167 -32.6702 -12.6823 -12.5973 -12.3142
    16.2441  16.8430  17.8430  17.9126  19.1362  19.6749  21.0334  21.4428
    22.5510  24.0118

          k = 0.1895 0.4739 0.4739 (  3517 PWs)   bands (ev):

   -66.5801 -36.0566 -32.7295 -32.7284 -32.6689 -12.6701 -12.6682 -12.3069
    16.0822  16.7313  17.7422  17.7709  19.9188  20.1041  20.9219  21.1035
    22.7852  24.3541

          k = 0.2843 0.2843 0.2843 (  3518 PWs)   bands (ev):

   -66.5835 -36.0986 -32.6973 -32.6973 -32.6860 -12.4966 -12.4814 -12.4814
    16.4248  17.7871  17.7871  17.8714  18.1122  18.1122  21.7671  21.7671
    22.8247  22.8247

          k = 0.2843 0.2843 0.3791 (  3525 PWs)   bands (ev):

   -66.5819 -36.0805 -32.7126 -32.6945 -32.6923 -12.6127 -12.4735 -12.4707
    16.8259  17.4706  17.7576  18.0333  18.1551  18.4074  21.4908  21.5133
    22.6389  23.4203

          k = 0.2843 0.2843 0.4739 (  3522 PWs)   bands (ev):

   -66.5809 -36.0696 -32.7226 -32.6951 -32.6929 -12.6865 -12.4687 -12.4586
    16.8627  17.2674  17.7261  17.9964  18.4403  18.9647  21.0339  21.3581
    22.5736  23.8363

          k = 0.2843 0.3791 0.3791 (  3526 PWs)   bands (ev):

   -66.5803 -36.0617 -32.7154 -32.7109 -32.6924 -12.5999 -12.5941 -12.4603
    16.9707  17.3624  17.8217  17.9853  18.3456  18.5892  21.2761  21.2979
    23.0056  23.6557

          k = 0.2843 0.3791 0.4739 (  3514 PWs)   bands (ev):

   -66.5793 -36.0505 -32.7246 -32.7139 -32.6916 -12.6703 -12.5878 -12.4531
    16.8507  17.2685  17.7759  17.8963  18.7022  19.0995  20.9068  21.1781
    23.0814  24.0503

          k = 0.2843 0.4739 0.4739 (  3516 PWs)   bands (ev):

   -66.5784 -36.0390 -32.7261 -32.7255 -32.6901 -12.6610 -12.6602 -12.4470
    16.7408  17.2347  17.7076  17.7533  19.3112  19.3190  20.6947  21.0024
    23.3001  24.3979

          k = 0.3791 0.3791 0.3791 (  3533 PWs)   bands (ev):

   -66.5787 -36.0438 -32.7124 -32.7124 -32.7111 -12.5864 -12.5864 -12.5841
    17.2696  17.7894  17.7894  17.9467  18.2938  18.2938  21.0796  21.0796
    23.6617  23.6617

          k = 0.3791 0.3791 0.4739 (  3510 PWs)   bands (ev):

   -66.5777 -36.0332 -32.7235 -32.7119 -32.7106 -12.6593 -12.5819 -12.5759
    17.2743  17.5220  17.8461  18.0341  18.3745  18.7157  20.7841  20.9843
    23.6770  24.1589

          k = 0.3791 0.4739 0.4739 (  3514 PWs)   bands (ev):

   -66.5768 -36.0229 -32.7229 -32.7228 -32.7096 -12.6528 -12.6527 -12.5736
    17.4034  17.6395  17.7422  17.9136  18.6582  18.6980  20.6402  20.8332
    23.9460  24.4338

          k = 0.4739 0.4739 0.4739 (  3514 PWs)   bands (ev):

   -66.5758 -36.0132 -32.7213 -32.7211 -32.7211 -12.6485 -12.6485 -12.6472
    17.6974  17.8929  17.8929  18.2206  18.2206  18.3012  20.6276  20.6276
    24.4544  24.4544

     the Fermi energy is    20.3575 ev

!    total energy              =    -448.56168356 Ry
     estimated scf accuracy    <          1.1E-11 Ry
     smearing contrib. (-TS)   =       0.00002259 Ry
     internal energy E=F+TS    =    -448.56170615 Ry

     The total energy is F=E-TS. E is the sum of the following terms:
     one-electron contribution =    -134.46290083 Ry
     hartree contribution      =      86.04371472 Ry
     xc contribution           =     -53.12927355 Ry
     ewald contribution        =    -270.85690569 Ry
     one-center paw contrib.   =     -76.15634081 Ry

     convergence has been achieved in  29 iterations

     negative rho (up, down):  9.542E-04 0.000E+00

     Forces acting on atoms (cartesian axes, Ry/au):

     atom    1 type  1   force =     0.00000000    0.00000000    0.00000000
     atom    2 type  2   force =     0.00000000    0.00000000    0.00000000

     Total force =     0.000000     Total SCF correction =     0.000000


     Computing stress (Cartesian axis) and pressure


     negative rho (up, down):  9.542E-04 0.000E+00
          total   stress  (Ry/bohr**3)                   (kbar)     P=      360.95
   0.00245369   0.00000000   0.00000000          360.95        0.00        0.00
   0.00000000   0.00245369   0.00000000            0.00      360.95        0.00
   0.00000000   0.00000000   0.00245369            0.00        0.00      360.95


     Writing all to output data dir ./TiFe.save/ :
     XML data file, charge density, pseudopotentials, collected wavefunctions

     init_run     :      2.32s CPU      2.55s WALL (       2 calls)
     electrons    :    111.98s CPU    117.91s WALL (       6 calls)
     update_pot   :      0.33s CPU      0.36s WALL (       4 calls)
     forces       :      1.40s CPU      1.51s WALL (       6 calls)
     stress       :      8.62s CPU      8.99s WALL (       6 calls)

     Called by init_run:
     wfcinit      :      0.60s CPU      0.74s WALL (       2 calls)
     potinit      :      0.45s CPU      0.49s WALL (       2 calls)
     hinit0       :      0.90s CPU      0.92s WALL (       2 calls)

     Called by electrons:
     c_bands      :     68.55s CPU     70.22s WALL (     101 calls)
     sum_band     :     23.39s CPU     25.60s WALL (     101 calls)
     v_of_rho     :      2.29s CPU      2.49s WALL (     105 calls)
     newd         :     12.85s CPU     14.63s WALL (     105 calls)
     PAW_pot      :      5.72s CPU      5.83s WALL (     109 calls)
     mix_rho      :      0.25s CPU      0.28s WALL (     101 calls)

     Called by c_bands:
     init_us_2    :      1.80s CPU      1.86s WALL (   12320 calls)
     cegterg      :     65.46s CPU     67.01s WALL (    5656 calls)

     Called by *egterg:
     cdiaghg      :      7.85s CPU      8.15s WALL (   23330 calls)
     h_psi        :     49.35s CPU     50.58s WALL (   23778 calls)
     s_psi        :      1.28s CPU      1.31s WALL (   23778 calls)
     g_psi        :      0.29s CPU      0.30s WALL (   18010 calls)

     Called by h_psi:
     h_psi:calbec :      2.15s CPU      2.20s WALL (   23778 calls)
     vloc_psi     :     45.63s CPU     46.76s WALL (   23778 calls)
     add_vuspsi   :      1.32s CPU      1.36s WALL (   23778 calls)

     General routines
     calbec       :      3.28s CPU      3.37s WALL (   35370 calls)
     fft          :      1.98s CPU      2.29s WALL (    1509 calls)
     ffts         :      0.31s CPU      0.32s WALL (     206 calls)
     fftw         :     40.70s CPU     41.66s WALL (  655994 calls)
     interpolate  :      0.40s CPU      0.43s WALL (     105 calls)

     Parallel routines

     PWSCF        :    125.70s CPU    132.64s WALL


   This run was terminated on:  13:44:40  25Oct2025            

=------------------------------------------------------------------------------=
   JOB DONE.
=------------------------------------------------------------------------------=
